/*--------------------------------*- C++ -*----------------------------------*\
  =========                 |
  \\      /  F ield         | OpenFOAM: The Open Source CFD Toolbox
   \\    /   O peration     | Website:  https://openfoam.org
    \\  /    A nd           | Version:  6
     \\/     M anipulation  |
\*---------------------------------------------------------------------------*/
FoamFile
{
    version     2.0;
    format      ascii;
    class       volScalarField;
    location    "25001";
    object      lambda;
}
// * * * * * * * * * * * * * * * * * * * * * * * * * * * * * * * * * * * * * //

dimensions      [0 0 0 0 0 0 0];

internalField   nonuniform List<scalar> 
44870
(
1.49730932e-07
2.66598346e-06
1.12330017e-08
1.06786837e-07
6.67710713e-08
4.1727994e-06
2.00352855e-07
1.9617255e-07
8.348347e-08
3.88708466e-08
2.89331451e-07
4.08547858e-07
1.32771823e-06
2.67118586e-06
1.84666583e-06
1.22291928e-06
1.31821122e-08
3.60191667e-08
1.07285788e-06
2.0184733e-06
5.21451451e-08
3.79666527e-07
1.90282674e-06
1.84774382e-07
8.90898396e-07
8.23425723e-09
2.68453082e-07
1.72318152e-06
2.381629e-06
4.22957283e-06
0.000645750462
2.80048485e-05
8.21675838e-08
2.00800425e-05
9.15489893e-08
3.42177433e-07
4.52952712e-06
0.000807780078
0.000417074435
0.000438187575
1.40888381e-06
4.08388089e-07
3.15707544e-06
1.010759e-06
2.21536234e-07
1.73826064e-06
2.46101976e-07
2.8721694e-06
1.5780469e-06
4.40717125e-07
9.26190901e-08
1.84999088e-08
8.06949613e-07
2.46360986e-06
2.41432775e-06
1.86276654e-08
1.67805332e-06
4.09584045e-06
9.40335987e-09
3.3368208e-08
3.90678256e-06
5.71768208e-07
7.88675803e-08
1.32962933e-06
2.70419896e-07
3.30218168e-06
1.05956179e-08
2.40423344e-08
3.77220536e-06
6.39713124e-08
0.000179885731
5.26128083e-07
5.4342006e-05
0.00103590234
0.0011623449
0.00106167135
2.41005411e-05
5.01740532e-08
1.85530386e-06
1.36667586e-05
3.24907375e-08
2.7512761e-06
1.54822656e-06
2.8272242e-07
2.54896282e-06
3.51107928e-07
5.34736516e-07
1.40361774e-08
3.86614503e-08
2.34320106e-06
8.69506136e-09
3.23048201e-07
2.49045714e-06
7.97445896e-09
6.03936765e-07
2.11618579e-06
1.72181337e-06
2.13204187e-07
1.48144908e-08
3.50220953e-06
1.88700589e-06
1.05713211e-07
2.08517791e-08
2.21913893e-08
2.40970717e-06
1.11593014e-06
1.48641026e-06
3.71838604e-06
1.57085764e-06
2.50868612e-06
0.00236125351
0.000462443661
0.000154188477
1.21349958e-07
4.68793403e-08
0.000890502741
9.8639172e-05
0.000439221861
0.00175451349
0.0089467915
1.66827425e-06
1.49224358e-06
3.07616056e-07
9.17726193e-09
3.35757052e-07
3.88875761e-07
1.80604092e-08
1.10085734e-07
2.53187791e-07
2.46204827e-06
3.86133729e-06
2.45920008e-08
1.64065616e-06
1.00120134e-06
1.10944553e-06
4.66436412e-07
6.09615627e-08
1.78818187e-07
3.01465062e-06
8.17077989e-09
1.83418433e-06
2.22150248e-06
1.44265532e-07
8.70243864e-07
6.99248324e-07
3.72131069e-06
3.00230846e-06
2.55554517e-08
5.47655466e-08
8.98504099e-06
0.000746267693
2.9093369e-08
0.00029271009
7.93256854e-07
0.000415690628
0.000294216713
6.08170144e-06
0.000184829844
1.56634045e-07
0.184048763
8.24516955e-07
1.46610364e-08
4.49073076e-07
3.22672902e-06
2.01484019e-06
7.13492857e-08
3.86360851e-06
1.1385295e-07
1.13099154e-08
2.1092611e-06
9.47603273e-07
1.18382623e-07
1.31859663e-06
2.24483511e-06
2.13281572e-07
2.19754218e-07
4.18231448e-08
1.1865355e-06
1.62949395e-08
4.80325944e-08
8.01805162e-07
2.25161505e-06
2.47125316e-06
2.19788767e-06
6.21300524e-06
4.58038136e-06
1.56375201e-06
5.00532993e-08
0.00715263774
1.25834323e-07
0.000376998694
0.000396497347
0.000892410209
7.17607877e-08
0.00023382759
0.000210349939
2.27920656e-06
2.42191109e-05
0.012545206
2.79278604
2.21042948e-08
9.58942995e-06
0.0104149946
0.00492792257
0.0161463946
0.012210736
0.0134209594
0.0741834292
6.46727783e-09
0.00686798768
0.0093123586
0.00815553504
0.00915508867
0.00919712882
0.0100656764
0.0124808835
0.020005164
0.0203393182
0.0227337966
0.0270209002
0.0360968955
0.0429729215
0.0522943245
0.0633555734
0.0766941893
0.0962966868
0.115469995
0.139890152
0.174101491
0.212123681
0.258450539
0.317290971
0.390247588
0.481459462
0.587467821
0.722525239
0.886564851
1.08941108
1.33720011
1.64032637
2.01214596
2.46655934
3.02440574
3.70341961
4.53077649
5.34857836
6.52058693
7.90074179
9.50862316
11.3582075
13.4558414
15.815571
18.4258277
21.2848014
24.3765302
27.6817323
31.1746168
38.0349282
42.3250227
46.6787408
51.038565
55.3176871
59.443538
63.3170644
66.8513169
69.9459039
79.4964955
68.9685409
70.2351857
70.5665394
69.778312
67.7225538
64.299753
59.5782803
53.8908747
47.6764821
41.5053106
35.8190935
30.8750979
26.7277772
23.3602205
20.6714871
18.650636
17.1442012
16.1200175
15.6949212
15.5097909
15.877871
16.6811248
17.7249202
19.1903532
21.0338306
23.0870514
25.5168224
28.2819814
31.4847574
35.0891219
39.2237961
43.9650557
49.4698626
55.9245353
63.5728503
72.7557525
83.8588299
97.4116517
114.123201
134.858135
160.718268
193.144893
233.928355
285.243727
349.713075
430.34036
530.362424
653.028571
800.938689
975.145933
1173.41002
1387.46971
1598.98629
1774.4296
1861.33573
1792.65259
1513.51397
1058.79423
646.884162
424.303553
312.244858
245.409557
199.144622
164.271734
136.971609
115.433682
98.6160771
85.813964
76.5149475
70.3157185
66.9326009
66.1437169
68.525079
74.8785344
83.0817966
24.2154549
96.0312252
15.334926
18.4462841
53.4491078
44.8727324
47.7351341
55.5305895
62.3360116
67.8754125
72.1831583
75.4215954
77.6864223
79.0800153
79.69903
79.6320784
78.9588567
77.7464655
76.068767
73.9766102
71.530248
68.7831694
65.7915102
62.6012666
59.2749254
55.8637483
52.4037503
48.9497099
45.5456784
42.2136563
39.0056129
35.9204005
32.9963118
30.2258004
27.6337633
25.2289285
22.9972384
20.9483762
19.0448041
17.3161528
15.7228776
14.2852552
12.9772764
11.8022148
10.7299969
9.75624149
8.86252007
8.08604664
7.3473866
6.72928765
6.14319827
5.6249592
3.63107608
3.31157919
3.05112399
2.81788965
2.59790751
2.39483985
2.19672325
2.03251262
1.86289968
1.74430686
1.59579282
1.49195931
1.88203186
1.73465926
1.59890492
1.48211993
1.35539543
1.24720228
1.1517436
1.06303486
0.995552432
0.910636278
0.838523287
0.774149534
0.712293223
0.654189774
0.614750526
0.560089579
0.42388412
0.392900709
0.363741965
0.334727745
0.310945932
0.288445688
0.269327413
0.258224938
0.232096039
0.218216591
0.203042231
0.185607656
0.176756346
0.162758054
0.149809199
0.142761243
0.13138071
0.121581709
0.114760179
0.105456695
0.102046606
0.0866398112
0.0845876994
0.0814174146
0.0763650622
0.0738052854
0.0637859378
0.053385123
0.0554185575
0.056947033
0.0428095162
0.0410259898
0.0465457447
0.0400151677
0.0360348351
0.0371580592
0.0299361627
0.030213945
0.0281956936
0.0224458418
0.0290441288
0.0117630101
0.027213827
0.0201018517
0.0209633761
0.0215416313
0.0200080977
0.0203944035
0.0177164674
0.0262656021
0.0430541484
0.0575419703
0.0609376893
0.0451745978
0.0681995502
0.0502395853
0.0622031036
0.0685482097
0.0763868942
0.0835459753
0.101527495
0.116928709
0.144086538
0.175153503
0.21494143
0.263536108
0.316971757
0.384170905
0.463416001
0.555376589
0.664908504
0.794343474
0.942704267
1.11729994
1.32011478
1.55390174
1.82766738
2.14608409
2.51379575
2.94220858
3.43471541
4.00093922
4.65428188
5.18882654
6.0315988
6.98585692
8.06490103
9.27341923
10.6243935
12.5719342
14.3345009
16.2766569
18.4184261
20.7478357
23.2638727
25.9590531
28.8195689
31.8365985
34.995781
38.2752317
41.6656192
45.1392634
48.6716637
52.2450478
55.8187481
59.3699899
62.8517393
66.2296937
69.4438163
80.7494238
84.4742813
87.7613372
90.4798435
92.4423865
93.4532178
93.333808
91.9000595
89.0047927
71.4151873
66.9300853
61.4313473
55.2707671
48.8604688
42.6791752
37.0451545
32.160578
28.060688
24.6716225
21.9389754
19.8449107
18.3023328
17.0981505
16.5367366
16.2180888
16.547078
17.2235296
18.132963
19.5139356
21.117747
23.1755144
25.3266694
28.022698
31.0499027
34.4267286
38.2821207
42.6661029
47.7398063
53.611996
60.5096973
68.7050678
78.514663
90.4194388
104.962799
122.848481
145.02563
172.657376
207.230185
250.599038
305.003807
373.105807
457.908715
562.61514
690.263849
843.121111
1021.60508
1222.47503
1435.97403
1641.76009
1804.09774
1869.04354
1770.83069
1462.61017
1000.23689
612.824584
409.620012
305.214842
241.510885
196.794209
162.843463
136.189624
115.155968
98.7683263
86.3402069
77.3933111
71.5304922
68.4828537
68.3769197
25.9645964
78.6141331
86.9932233
95.0760779
98.3676569
15.4791147
19.3876039
52.634772
45.1111094
48.9266406
56.713197
63.4202214
68.8475159
73.045955
76.1846869
78.3575278
79.6680636
80.2112546
80.0742549
79.3390511
78.0720029
76.3420423
74.2018923
71.7141194
68.9328696
65.9052283
62.6907857
59.3419111
55.9069283
52.4362879
48.9670621
45.5536382
42.2157785
39.0033083
35.9121133
32.9698858
30.2132413
27.6278703
25.2317329
22.9903515
20.9381912
19.0335493
17.2988881
15.7292155
14.29166
12.9816701
11.7881385
10.7218135
9.75099144
8.85905253
8.07519084
7.38258606
6.73281853
6.1475078
5.60664734
3.62669748
3.30574699
3.03799092
2.79530593
2.579896
2.35981091
2.19826963
2.02552512
1.88296526
1.74463899
1.60035519
1.47352669
1.85237645
1.7131161
1.59432448
1.46087135
1.36306197
1.23263729
1.14906752
1.06408751
0.990414669
0.905294257
0.844459615
0.765322735
0.71644832
0.660752693
0.604517694
0.56306633
0.423368242
0.39562719
0.366394084
0.340256326
0.31235302
0.292939401
0.269699383
0.252700164
0.237063924
0.219912679
0.20551799
0.188251187
0.175024424
0.164706778
0.151743778
0.141558235
0.129493846
0.119520411
0.112422489
0.106951601
0.0996834863
0.0932922413
0.0884641656
0.0744830834
0.0732707791
0.0671543345
0.0702566566
0.0660165829
0.0529036072
0.050477509
0.0498517903
0.0410363359
0.0370910557
0.0396557021
0.0318548108
0.0291004719
0.0363070612
0.0336447384
0.0302061065
0.0121265067
0.0234120284
0.0223111757
0.0261589402
0.0159535313
0.0217290251
0.0216832045
0.0159558048
0.0175752721
0.396932247
0.853512454
1.11875103
1.22245301
1.21186163
1.23731223
1.1771304
1.22240776
1.33613007
1.52326549
1.78958999
2.11825429
2.51753275
2.97756725
3.48858538
4.05650943
4.68234025
5.36461797
6.10152047
6.8950902
7.74378658
8.64846952
9.61324107
10.6374865
11.7330143
12.9029441
14.1623962
15.5221553
16.982397
18.5538046
20.2399364
22.0416358
23.9601668
25.9965467
28.1550367
30.4420227
32.8507399
35.3942995
38.0505871
40.8217858
43.6945228
46.6560759
49.6873642
52.7480533
55.8449946
58.938589
62.0122856
65.0375094
67.9994495
70.8908526
80.9266131
84.5273924
88.0667175
91.5030087
94.8197229
97.9631891
100.901769
103.545181
105.802274
107.568561
108.738735
109.185606
108.778287
107.406937
104.969272
101.399989
96.693022
90.9503647
84.3476871
77.1875775
69.8055085
62.5337322
55.6510893
41.8741512
37.0191229
32.7804622
29.1833549
26.1222745
23.6127395
21.6208419
20.0575618
18.8657778
18.1569541
17.9278734
18.0207444
18.4768894
19.4432733
20.5986791
21.8109475
23.8156933
25.8865324
28.27985
30.9671368
34.0421723
37.4960662
41.3410619
45.7566775
50.7953252
56.5861216
63.3630569
71.3462409
80.8481872
92.2599972
106.115888
123.017426
143.774402
169.441594
201.292025
240.965277
290.432506
352.060781
428.558126
522.892356
638.042857
776.529321
939.685928
1126.36117
1330.8548
1539.97034
1728.95937
1857.69225
1870.20512
1705.96996
1340.19721
878.363122
548.58035
381.562933
291.314643
233.631827
192.000825
159.960539
134.676841
114.729298
99.2652706
87.6622558
79.4867413
74.3698842
72.4855296
74.0006368
79.2825542
87.0923064
95.6195033
102.32793
102.779919
16.0554065
21.6247706
51.000417
45.9330511
51.5922603
49.7814093
65.7694043
70.9509108
74.9097859
77.8316847
79.8061689
80.9356369
81.3144511
81.029017
80.156129
78.7692667
76.9260153
74.6896867
72.1101674
69.2459426
66.1553699
62.8802908
59.4797726
55.9923277
52.4949851
49.0011141
45.5649338
42.2145149
38.9794248
35.8863232
32.9442904
30.1850685
27.5883049
25.1811129
22.9493092
20.8949081
19.0024595
17.275254
15.6908353
14.2659299
12.9508134
11.7772624
10.699384
9.74803313
8.87194836
8.07821675
7.34442777
6.71852744
6.12958602
5.59190317
3.62738428
3.31437128
3.05191681
2.8147143
2.60862189
2.39384745
2.19113277
2.0253161
1.86953147
1.7219547
1.60891277
1.49281718
1.86192055
1.72283116
1.59070748
1.45674089
1.35445709
1.23755904
1.15260622
1.07020098
0.981255435
0.907797066
0.841031061
0.772249044
0.718918364
0.659258759
0.607134222
0.556406942
0.424923566
0.395032525
0.367773144
0.334386064
0.315729053
0.287421477
0.269515599
0.250583769
0.231091815
0.219805724
0.199863888
0.188192557
0.17213575
0.162170029
0.151707263
0.140811716
0.127199359
0.123953447
0.115636399
0.101509945
0.104774383
0.0904096113
0.0837570892
0.0765951413
0.07181499
0.0765166506
0.0670043909
0.0577614541
0.0505610704
0.0520764236
0.0455770859
0.0528361454
0.0413293107
0.0275610058
0.0319550102
0.033271787
0.030913243
0.0294901647
0.0269705706
0.0241322577
0.0248875831
0.0265265961
0.0269006361
0.0201476092
0.0212147865
0.0212991631
0.0254226539
0.0220222885
15.5512661
28.492114
32.959783
32.3824124
29.8994643
28.0428605
27.483642
28.1287907
29.6536686
31.720691
34.0164866
36.29532
38.4038123
40.3123422
42.0482589
43.659914
45.175233
46.6178522
48.000067
49.3324318
50.6353165
51.9365844
53.2860336
54.7309034
56.3284473
58.1081685
60.0820044
62.2363211
64.5110985
66.8881032
69.3338995
71.8319661
74.3708847
76.9434503
79.5487466
87.3808312
90.8515887
94.3710917
97.8571211
101.245916
104.49968
107.588604
110.526217
113.290936
115.875924
118.211883
120.24924
121.904178
123.120146
123.84213
124.050865
123.746411
122.903158
121.53317
119.615932
117.136252
114.083994
110.479773
106.333106
101.727489
96.6968306
91.3522706
85.7908336
80.1305606
74.4660849
68.897312
63.4967507
58.3485419
53.48076
48.9225185
44.6805219
40.7560764
37.1568299
33.8247414
26.4235268
24.5645306
23.0297669
21.7817688
20.9396737
20.3257537
20.0911456
20.1839948
20.5945554
21.3878902
22.2888437
23.5245159
25.3520538
27.066186
29.2772659
31.6879072
34.3184987
37.3167655
40.6270538
44.3236053
48.4903657
53.1913789
58.5616337
64.7207552
71.9050672
80.3336323
90.319288
102.236659
116.559275
133.91061
155.054058
180.920956
212.741326
251.979137
300.450451
360.299365
433.983844
524.180646
633.615655
764.653097
918.705944
1095.21853
1290.10922
1493.5019
1686.65358
1838.61305
1904.25625
1828.42615
1565.82567
1138.62611
721.122174
474.248171
347.697081
273.601011
223.267462
185.666068
156.251592
132.921369
114.563888
100.482128
90.1288625
83.1425583
79.9953877
80.5701982
84.6931408
91.7582057
28.6570495
108.635547
112.215036
17.2108355
17.8646485
65.033254
49.23156
47.9374644
55.7685892
63.1685973
69.2599342
74.0643511
77.6583335
80.2569962
81.9363937
82.7979214
82.9336701
82.4266997
81.3546067
79.7866615
77.7769819
75.3943235
72.6825593
69.7075436
66.5100773
63.1505659
59.672047
56.1375722
52.571125
49.0409839
45.5718691
42.1954186
38.9504306
35.8466284
32.8973429
30.1300959
27.5503768
25.1375042
22.8874074
20.8592003
18.9547641
17.2297944
15.6623047
14.2238854
12.9114006
11.7556533
10.664882
9.71540617
8.8412308
8.05390611
7.36822545
6.71120977
6.11728222
5.58252946
3.60641366
3.30595383
3.03969967
2.80313072
2.6056496
2.35416773
2.19461275
2.02119044
1.87059578
1.7288922
1.59822319
1.46929405
1.8663436
1.72160186
1.59043443
1.46190619
1.36020603
1.24580836
1.15072907
1.05930874
0.991876247
0.901829385
0.847704408
0.773191425
0.714796601
0.666694778
0.607284838
0.561866423
0.42392932
0.394513527
0.362590652
0.337191158
0.318870687
0.289441222
0.271503424
0.249285869
0.238701567
0.216589024
0.201348033
0.18715874
0.174283613
0.159405744
0.150448537
0.13756516
0.130157063
0.118909416
0.112483556
0.107190509
0.09738343
0.0896377784
0.0867539629
0.0761758469
0.0742715943
0.0682863683
0.0665546224
0.0594688396
0.052876217
0.0566897243
0.0459542549
0.0424387395
0.0444660802
0.0457211044
0.0417017996
0.0298082605
0.0315410758
0.0337497378
0.0160480976
0.0255231047
0.0260524082
0.0293488664
0.0204717215
0.0162522955
0.021868019
0.0148676058
0.0150937211
0.0156476417
343.503309
398.272662
323.386196
256.636054
222.982003
208.263019
198.350488
190.232374
182.845468
175.906585
169.440052
163.3511
157.259262
151.653217
146.947487
143.273052
140.504989
138.547746
137.124755
135.802067
134.406592
133.048259
132.001907
131.511787
131.734143
132.60863
133.885821
135.098998
135.921283
136.255133
136.135313
135.706985
135.13581
134.526001
133.874625
133.092792
132.021675
130.523599
128.407588
126.043756
123.139085
119.887594
116.374872
112.640818
108.700292
104.588811
100.315591
95.9305882
91.4699467
87.0279665
82.6584985
78.4109376
74.3436867
70.4845071
66.8354449
63.3862116
60.1393228
57.0704926
54.1715982
51.4563952
48.8576524
46.3628623
44.0189596
41.7257773
39.522334
37.3458791
35.2321632
33.109341
31.0206716
28.9248516
26.7769024
24.6627472
22.5349724
20.7853033
19.8063088
22.547423
22.8285515
23.2335586
23.7624899
24.5076047
25.5505312
26.7178375
28.2753198
29.9240871
31.7909765
33.9782325
36.2759315
38.7915238
41.5888877
44.6816044
48.0919435
51.839064
56.0436387
60.7657955
66.134729
72.2494307
79.3137476
87.5251906
97.1452965
108.471423
121.930307
138.012011
157.307869
180.609348
208.834051
243.15047
284.98763
336.046189
398.323654
474.039449
565.571458
675.258956
805.061197
955.956778
1127.12173
1314.64957
1509.71241
1696.25757
1848.41702
1928.84152
1890.5836
1688.83234
1316.48263
880.390064
570.060922
405.570335
313.9326
254.767619
211.911777
178.784695
152.497085
131.587254
115.281386
103.018086
94.8278113
91.3215172
91.1693153
94.5391056
101.18455
110.149497
30.4467925
125.154156
122.334926
17.2038859
22.147891
58.883867
48.6935742
53.0723448
61.2966821
56.7270469
73.7732188
78.0689103
81.1863884
83.3622332
84.658507
85.1729969
84.9950328
84.2043544
82.8759428
81.0729041
78.8555249
76.2814415
73.4044966
70.2746162
66.9509751
63.4817178
59.9123231
56.2881574
52.668667
49.0885162
45.5768586
42.1737392
38.9038293
35.7886804
32.8247799
30.0663029
27.4732281
25.0640783
22.8342105
20.7804836
18.8969645
17.1811521
15.6160775
14.1852821
12.879086
11.7143701
10.6446832
9.68618791
8.826099
8.03963328
7.31111907
6.67831321
6.1014602
5.59855215
3.58325756
3.30078971
3.04067521
2.77954049
2.58372818
2.35444622
2.18883875
2.02870569
1.86532528
1.72343125
1.58826348
1.48471549
1.36255567
1.27753059
1.17376432
1.44691944
1.02186796
1.26580997
0.876623072
1.07210908
0.984116272
0.897806584
0.842189118
0.776944281
0.716392918
0.661169585
0.60696309
0.454271554
0.418449118
0.390911604
0.364883433
0.335656132
0.309779008
0.288190361
0.275885976
0.246524728
0.232705068
0.222803478
0.201555259
0.186582466
0.175907301
0.157950032
0.146586819
0.143516751
0.128199941
0.123838738
0.114121212
0.102553968
0.0955658886
0.0911648382
0.0833274181
0.0808040983
0.075328129
0.0713477283
0.0632389793
0.0572522562
0.0543066689
0.0563957831
0.0509230326
0.0501257458
0.0293297423
0.0424777665
0.038801292
0.037987174
0.0260140348
0.0284888606
0.0233166436
0.0262718405
0.0198973479
0.0208547781
0.0220261545
0.0260988132
0.0258899339
0.0191252787
0.0174268746
0.0156060786
43.6747007
169.731691
279.862151
343.570338
372.653504
363.279939
351.934164
330.345797
300.012372
270.132294
244.2012
222.63189
205.045802
191.609646
181.387289
172.976152
165.504859
158.569871
151.643438
144.782872
138.174717
132.173001
127.096946
123.036991
119.789489
116.870454
113.785157
110.231355
106.31416
102.256018
98.2424195
94.4619172
91.0178954
87.8913747
84.9827804
82.1760806
79.3722814
76.5891616
73.8222653
71.1454634
68.5855285
66.1462746
63.8178793
61.5807123
59.3708144
57.191802
55.0225381
52.898717
50.8153879
48.8128797
46.8699473
44.9998007
43.1684825
41.3858954
39.6099577
37.8980282
36.2459523
34.6167202
33.0871992
31.5675038
30.1089883
28.5323869
26.9161901
25.0705129
23.2661199
20.5962636
18.2759003
17.5750737
16.499861
14.8902784
19.0818749
21.0962889
22.9366502
24.9296305
26.8189037
27.8111658
28.8217287
29.9112401
31.2511804
32.7131969
34.3835593
36.1977437
38.1636081
40.3145338
42.6734179
45.2298089
48.0186099
51.0710955
54.4021208
58.0922662
62.175278
66.743133
71.8944809
77.7490958
84.4385408
92.1524284
101.109643
111.570175
123.833281
138.313739
155.481549
175.952483
200.434892
229.845472
265.269507
308.026485
359.700817
422.113296
497.264904
587.309116
694.287221
819.936293
965.100334
1129.13959
1308.7547
1496.69166
1679.8568
1837.21553
1938.27781
1943.41815
1809.92509
1511.9505
1092.44639
713.792464
488.329674
366.869183
293.43295
242.812959
204.68448
174.636379
150.638999
131.588508
116.898735
107.721686
102.475151
100.864775
36.7928377
108.421784
116.978721
126.873767
135.20464
137.651628
19.5526408
18.8016969
26.1298456
54.8208539
41.6255913
57.9459962
65.7937518
72.2578522
77.3866247
81.2621111
83.9906306
85.828167
86.8181417
87.0559993
86.626533
85.6102074
84.0738996
82.0864651
79.7007334
76.975901
73.9630324
70.7179545
67.2883871
63.7237941
60.0837688
56.4031243
52.7294063
49.1094735
45.5726319
42.1451002
38.8614868
35.7354614
32.7694259
30.0091701
27.3935375
24.9913437
22.7713221
20.7277274
18.8384266
17.1325357
15.5576647
14.1492269
12.85442
11.6914066
10.6322511
9.6662391
8.80200695
8.02418853
7.30545335
6.67054696
6.08790021
5.57147378
3.6076119
3.2761683
3.04988694
2.79114942
2.57009778
2.36575091
2.18141314
2.0078703
1.86917449
1.72849858
1.57048412
1.4834457
1.36943161
1.27547219
1.1825587
1.09674705
1.02023215
0.935825274
0.882104068
0.815950399
0.753804269
0.706404231
0.842720956
0.77986793
0.719328122
0.650719492
0.481465057
0.451421435
0.420511527
0.391976568
0.361671735
0.340212682
0.310751824
0.291290265
0.270424871
0.249831894
0.231161014
0.214573216
0.199438879
0.183415387
0.169525994
0.161239648
0.150413879
0.140856726
0.132163725
0.120586512
0.116137598
0.107641789
0.099904753
0.0931000463
0.0843085097
0.0808999308
0.0715729633
0.068234318
0.0629672871
0.0628191475
0.05300393
0.047153776
0.045466011
0.0452545423
0.0365431013
0.0391475348
0.0329532478
0.0324639075
0.0271200555
0.029987283
0.0287378001
0.0287318242
0.0239111859
0.0250694839
0.0262910218
0.0203692424
0.0233976772
0.0186528971
0.0160994736
0.020228073
46.6263468
23.5008127
17.6935958
13.5538952
10.512885
8.25117706
6.55896969
5.28614465
4.32262817
3.57995647
2.99770529
2.53714457
2.1683695
1.86389059
1.61153898
1.40564243
1.22813271
1.07521068
0.949778958
0.840534334
0.745828119
0.658668588
0.590492084
0.527106515
0.469711182
0.416723882
0.371679801
0.335876542
0.297867583
0.267775976
0.242853929
0.217115702
0.199358541
0.179992671
0.160356647
0.142469913
0.128979097
0.131963933
0.173412867
3.28855126
34.134679
26.3597771
20.7917432
16.6582962
13.4940251
11.0206579
9.07010708
7.51956628
6.28288176
5.29170909
4.4879158
3.83054481
3.29131134
2.8416267
2.46780934
2.15272897
1.88249646
1.65924874
1.4579059
1.29108016
1.14173476
1.01593588
0.905144399
0.804827201
0.716649125
0.640102329
0.574219318
0.518618817
0.461579641
0.408083802
0.371940171
0.331406936
0.301369491
0.274630569
0.247074794
0.219484904
0.19802951
0.191288371
0.179112941
0.461717397
35.944019
28.8230012
23.4300292
19.2928438
16.0538366
13.4629058
11.3558332
9.62868105
8.20272873
7.02387705
6.04255589
5.21997723
4.52196083
3.94043701
3.44254276
3.01976792
2.65660738
2.34140493
2.07055669
1.83179227
1.62789071
1.44442357
1.29140858
1.15084949
1.02871817
0.912243089
0.822157927
0.733587914
0.659361719
0.592247009
0.528843452
0.48311398
0.432550121
0.384780862
0.346717113
0.31132678
0.282963077
0.257584666
0.238843198
0.244986582
36.4877703
29.8259676
24.5941083
20.489066
17.2315449
14.6081198
12.4596977
10.6821691
9.19914862
7.95093624
6.89196556
5.99811647
5.23372256
4.57396947
4.01441525
3.52987888
3.11032251
2.74717871
2.42989012
2.15649415
1.91494092
1.70405917
1.51635717
1.35298332
1.20574126
1.07850305
0.964904052
0.865216451
0.772702267
0.693627082
0.621438608
0.556523191
0.497253104
0.447231425
0.404330359
0.361164808
0.321197376
0.288542219
0.257664606
0.230257528
36.3968647
29.5986916
24.2683125
20.1180152
16.8520253
14.2378794
12.1105047
10.3516315
8.88983253
7.65769755
6.61953882
5.73854733
4.99016492
4.34967735
3.80029532
3.33268238
2.9309816
2.57907063
2.27377405
2.01090215
1.7802985
1.58080392
1.40303168
1.24609641
1.11367875
0.991138241
0.883023643
0.786819467
0.705160847
0.630641242
0.559440493
0.506893959
0.449801277
0.402586671
0.359130178
0.321455012
0.286046292
0.255072444
0.217799596
0.200493512
35.6243469
28.2386347
22.6743865
18.4745168
15.2275738
12.6558825
10.583105
8.8907673
7.50405848
6.36262426
5.42604383
4.64004795
3.98694374
3.43670828
2.97532948
2.58487988
2.25233125
1.96876793
1.72369849
1.51821096
1.33914772
1.18261825
1.04163287
0.920758707
0.816090637
0.725366845
0.649788083
0.578548772
0.51280142
0.453607731
0.407079096
0.365390833
0.324643047
0.287858327
0.257248851
0.227771571
0.203407448
0.180507387
0.157503488
0.196933233
33.7540619
25.8048365
20.1410563
15.9513627
12.7343125
10.2284972
8.27432161
6.73717063
5.52496576
4.57203884
3.8114908
3.19772256
2.70324939
2.2994705
1.96755041
1.68943931
1.46207041
1.26474768
1.10214504
0.961820739
0.842319712
0.744524133
0.65376685
0.581653544
0.590793992
0.523656248
0.465042254
0.413396948
0.365491778
0.328151841
0.295616733
0.261490372
0.231021259
0.202820793
0.185374293
0.16425067
0.131519404
0.12183051
0.118032661
0.214775236
46.476754
23.2718421
17.3174231
13.0540305
9.88909831
7.54727487
5.8268503
4.56955085
3.6432577
2.94813497
2.42343173
2.01025824
1.68540837
1.42895963
1.21234038
1.0378664
0.900386151
0.776841329
0.673769391
0.58853086
0.516116045
0.453484462
0.396639302
0.351857546
0.31218243
0.275203026
0.242186839
0.211293666
0.189455267
0.170356651
0.150320976
0.131037064
0.11994605
0.10175702
0.0924038592
0.0816016818
0.0722292853
0.0585449772
0.06870794
0.34152609
5537.96042
727.151135
280.93871
172.106181
225.162965
168.054556
104.688196
66.1944322
44.2142424
29.0335398
18.9605729
20.3280066
21.5724092
22.7845281
23.7028245
24.7267275
31.3119981
30.9589742
29.3089222
31.4398229
33.9199505
35.5649378
36.6846966
37.3975538
37.7854876
37.7495824
37.3130155
36.8501896
36.6374112
36.5113429
36.3161178
36.0514566
35.6776386
35.1500002
34.4185416
33.5778141
32.8567483
32.4085146
32.1082973
31.8181489
31.4347373
30.8207921
29.969679
28.8047956
27.3150687
25.5935376
24.2597407
23.2186314
23.1085453
22.832918
22.3317182
21.2881367
19.4909172
17.7835068
17.1114784
16.974904
18.9092256
20.6751636
21.9979509
23.324989
24.3234608
25.3172259
26.2987774
27.3503443
28.4609241
29.6619042
30.8452014
32.107244
33.4913001
34.9669321
36.5690389
38.3340308
40.242686
42.2092893
44.3563308
37.8838353
39.3572233
40.8809528
42.584731
44.4521339
46.4505315
48.6434351
50.9043416
53.5332082
56.3089977
59.3379592
62.6241179
66.2595139
70.2687035
74.7393992
79.7743633
85.4787334
91.9772026
99.4051235
107.996235
117.93014
129.503267
143.028996
158.898397
177.59049
199.701085
225.940082
257.195793
294.484069
339.073438
392.388527
456.114778
532.074392
622.149931
728.11306
851.409879
992.667441
1151.15691
1323.90598
1504.52879
1681.84156
1838.11376
1947.80093
1977.32885
1888.64934
1651.12929
1274.59749
868.074515
583.457851
426.108507
335.179866
275.475327
231.893567
197.999484
170.893316
149.335878
132.95567
121.885881
114.821421
111.441667
111.953426
116.201561
123.95005
133.963049
143.82715
149.893602
24.5917014
18.8741424
22.4970418
68.9036127
52.3079299
54.1567699
62.9446476
70.3147079
76.2951039
80.967319
84.4108088
86.7464439
88.2449857
88.9295963
88.8920188
88.2136513
86.9728497
85.2332719
83.0604378
80.5104265
77.6351932
74.4932089
71.1248742
67.5962002
63.955454
60.2349328
56.4928135
52.7768643
49.1226848
45.5476212
42.1038685
38.8000777
35.6651828
32.7054541
29.9172134
27.3389499
24.9278124
22.7142989
20.6683493
18.7832904
17.0880056
15.5248838
14.1042208
12.8139146
11.6369442
10.6020198
9.6422503
8.77430759
7.98624268
7.28734187
6.67127563
6.08252981
5.5625019
3.55171627
3.29763003
3.0130762
2.77966212
2.55635571
2.34120999
2.17288971
1.99162653
1.85103621
1.71997956
1.57151215
1.4785781
1.3525575
1.26118973
1.17316096
1.09567484
1.00778062
0.944728903
0.876305889
0.816030434
0.759898818
0.697503212
0.660554017
0.606158467
0.563211044
0.531648708
0.483406912
0.452196792
0.419083126
0.389409862
0.362955377
0.332362066
0.310494971
0.29256333
0.271329965
0.246205542
0.233741242
0.216075239
0.200377605
0.186127038
0.171189608
0.158925548
0.149963496
0.139082596
0.13077405
0.116685389
0.113769384
0.10396841
0.100948728
0.0878178228
0.0876078836
0.077871145
0.0719743978
0.0671132621
0.0639747189
0.0587374934
0.0516524819
0.0492497516
0.0522057751
0.0517484465
0.0397698687
0.0365924636
0.0328074545
0.0353797263
0.0312160074
0.0218231625
0.0294611075
0.0265784761
0.0280673685
0.0226919049
0.0270170899
0.0184614568
0.0207995692
0.0190465867
0.0154845594
0.010088181
15.8749259
62.6825902
115.818733
142.50672
126.500122
804.489424
4167.51776
4077.72781
1992.86964
986.138757
583.814789
366.017386
234.901458
233.123703
189.991169
160.255526
139.220148
124.408638
111.421107
98.3691967
88.2795568
81.6397776
77.615622
75.4558029
74.2117565
72.9632375
71.1307243
68.4138389
65.6626875
63.3435851
61.6572279
60.5871722
59.9721911
59.6380336
59.3164853
58.9112668
58.2723487
57.5643026
56.8339165
56.2406263
55.7606491
55.4510578
55.2838473
55.1780765
55.2645897
55.3938952
55.5886279
55.711613
55.8991707
56.1299819
56.4798479
56.895731
57.44688
58.0278228
58.6423396
59.249668
59.8607922
60.4785025
61.1088483
61.812057
62.5771941
63.4778054
64.4890841
65.5847302
66.7591477
68.0055758
69.350895
70.8235149
72.3891211
74.0636554
75.8401836
77.6869063
79.6377984
81.6554665
61.258611
62.8505626
64.6661976
66.5406981
68.6590476
71.0035404
73.5818285
76.391709
79.4707267
82.8407333
86.5446052
90.6431634
95.197774
100.308988
106.085225
112.622859
120.086893
128.632933
138.444941
149.758958
162.827112
177.969103
195.584176
216.097006
240.021791
268.053466
300.935663
339.597511
385.087886
438.614901
501.617133
575.619555
661.943203
761.975539
876.836279
1007.0339
1152.14535
1310.21579
1476.99464
1644.99658
1802.4265
1932.13834
2010.80118
2009.5397
1897.45209
1652.33177
1288.15644
900.910011
620.603625
458.874028
363.639143
301.076163
255.677391
220.51344
192.461212
170.528491