/*--------------------------------*- C++ -*----------------------------------*\
  =========                 |
  \\      /  F ield         | OpenFOAM: The Open Source CFD Toolbox
   \\    /   O peration     | Website:  https://openfoam.org
    \\  /    A nd           | Version:  6
     \\/     M anipulation  |
\*---------------------------------------------------------------------------*/
FoamFile
{
    version     2.0;
    format      ascii;
    class       volScalarField;
    location    "25000";
    object      alphat;
}
// * * * * * * * * * * * * * * * * * * * * * * * * * * * * * * * * * * * * * //

dimensions      [1 -1 -1 0 0 0 0];

internalField   nonuniform List<scalar> 
44870
(
0.000792671521
0.000785375266
0.000777271518
0.000770032893
0.000761447843
0.000753229404
0.00074335633
0.000733540665
0.000722016661
0.000710479318
0.000697365694
0.000684311003
0.000669961797
0.000655792585
0.000640691792
0.000625894026
0.000610514246
0.000595530718
0.000580289252
0.000565471966
0.000550674988
0.000536293683
0.000522106693
0.000508353962
0.000494866135
0.000481857403
0.000469146076
0.000456916419
0.00044503297
0.000433551126
0.000422508174
0.000411723371
0.00040150449
0.000391361473
0.000381929708
0.000372393091
0.000363677299
0.000354733215
0.000346588439
0.000338409122
0.000792748592
0.000785137851
0.000775254274
0.000765206388
0.000752049783
0.000738680509
0.000722271831
0.000705953647
0.000687152766
0.000668944875
0.000648770814
0.000629756371
0.000609219103
0.000590233443
0.000570185259
0.000551766879
0.000532703954
0.000515282386
0.00049746261
0.000481255651
0.000464783075
0.000449868805
0.000434747863
0.000421118292
0.00040729506
0.000394879326
0.000382280644
0.000370961071
0.000359501254
0.000349132801
0.000338760092
0.000329202322
0.000319865714
0.000310990255
0.000302639154
0.000294322428
0.00028690828
0.000279085244
0.000272778945
0.000264835019
0.000792270773
0.000774594416
0.000748814979
0.000719612302
0.000685370889
0.00065203496
0.000615442717
0.000582423258
0.000547827942
0.000517301576
0.000486024425
0.000459375972
0.000431664784
0.000409263731
0.000385051154
0.00036604639
0.000345530976
0.000329538285
0.000312098721
0.000298813424
0.000283896969
0.000272996559
0.000260172162
0.000251365482
0.000240299811
0.000233320345
0.000223786372
0.000218381843
0.000210250809
0.000206178659
0.000199400871
0.000196428744
0.000191013664
0.000188917836
0.000184815439
0.000183413971
0.000180934946
0.000179922153
0.000179437761
0.000178115832
0.000734005477
0.000629429041
0.000546955545
0.000479244514
0.000424755806
0.000380226788
0.000343719772
0.000313651338
0.000288695723
0.00026807231
0.000250869596
0.000236642623
0.000224812873
0.000215048986
0.00020707318
0.00020050853
0.000195394053
0.000191206037
0.000188394833
0.000186030169
0.000184775761
0.000184203564
0.000184184423
0.000185208294
0.000186210564
0.000188723065
0.000190617943
0.000194573539
0.000197199055
0.000202580332
0.000205891736
0.000212617109
0.000216567517
0.000224542987
0.000229072459
0.000238162558
0.000243236908
0.000253066049
0.00025905559
0.000270334235
0.000222301446
0.000238376081
0.000253303794
0.000267637484
0.000280793645
0.000293272164
0.000304541923
0.000315068639
0.0003243969
0.000332985753
0.000340433572
0.000347203269
0.00035292857
0.000358075117
0.00036229664
0.000366055418
0.000369016791
0.000371629651
0.000373571811
0.000375263311
0.000376408206
0.000377373977
0.00037791471
0.000378315701
0.000378417562
0.000378342588
0.000378140273
0.000377867664
0.000377312923
0.00037691444
0.000376152661
0.000375616705
0.000374764724
0.000374132302
0.00037325653
0.00037255182
0.000371713652
0.000370922183
0.000370200255
0.000364402948
0.000330638222
0.000322547102
0.000315546985
0.000309085958
0.000302943602
0.000297051497
0.000290924124
0.000285208366
0.000279040015
0.000273601988
0.000267661753
0.000262561531
0.000257148935
0.000252317944
0.00024768651
0.000243120511
0.000239305052
0.000235194999
0.000231985306
0.000228686527
0.000226035143
0.000223638411
0.000221729805
0.000220060636
0.000219567493
0.000219182258
0.000219023409
0.000220535087
0.000221352591
0.000224309219
0.000227833316
0.000232048659
0.000238573599
0.00024496464
0.000254377219
0.000263817481
0.000276252495
0.000289393463
0.000304974398
0.000321896862
0.000340781924
0.000361618643
0.000384627927
0.000409880849
0.000437733864
0.000467844376
0.000499959253
0.000533760318
0.00056887485
0.000605171281
0.000642364567
0.000680588696
0.000719669695
0.000759899644
0.000801159327
0.000843670126
0.000887238353
0.000931781987
0.000976987048
0.00102250503
0.00106807488
0.00111316623
0.00115766716
0.00120081098
0.0012427656
0.00128276964
0.00132142438
0.00135833652
0.00139455165
0.00143007159
0.001465548
0.00150142011
0.00153684239
0.00157332004
0.00160786649
0.00164308642
0.0016769595
0.00170965847
0.00174081159
0.00177068229
0.00179919102
0.00182620376
0.00185209368
0.0018768386
0.00190082426
0.00192363014
0.0019462255
0.00196774893
0.00198866229
0.00200873931
0.00202799602
0.00204707106
0.00206536302
0.00208286968
0.00209952758
0.00211531413
0.00213014594
0.0021440645
0.00215700264
0.0021691355
0.00218070967
0.00219177998
0.00220225728
0.00221238235
0.00222179814
0.00223063914
0.00223909222
0.0022464088
0.00225311499
0.00225860472
0.00226334768
0.00226749403
0.00227007302
0.00227145236
0.00227179407
0.0022710298
0.00226912467
0.00226605067
0.00226178648
0.00225634301
0.00224979848
0.00224238203
0.00223450978
0.00222688117
0.00222050308
0.00221636009
0.00221520267
0.00221818601
0.00222418633
0.00223387278
0.00224709469
0.00226319168
0.00228163849
0.00230211364
0.00232424423
0.00234763582
0.00237243942
0.00239849272
0.00242504054
0.00245257186
0.00248133413
0.00251155399
0.00254351618
0.00257736579
0.00261276598
0.00264898548
0.00268542337
0.00272181059
0.00275810044
0.00279431701
0.00283055656
0.00286695501
0.00290363858
0.00294069002
0.00297821368
0.00301640223
0.00305546805
0.00309541791
0.00313627769
0.00317809631
0.00322090917
0.00326473573
0.00330958016
0.00335543177
0.0034022666
0.00345004791
0.00349872805
0.0035482499
0.00359854811
0.00364955106
0.00370118241
0.00375337398
0.00380610475
0.00385962101
0.00391334062
0.00396673031
0.00402025455
0.00407389444
0.00412756281
0.00418117377
0.00423464429
0.00428791903
0.00434097147
0.00439374958
0.00444619402
0.00449837358
0.00455041463
0.00460272446
0.00465495973
0.00470800391
0.00476245586
0.00481808483
0.00487707383
0.00493643362
0.0050011569
0.00506546652
0.00512988201
0.00520021874
0.00524410096
0.00529493833
0.00534362528
0.00537844659
0.00545796448
0.00543136653
0.0054696977
0.00548736653
0.00548939357
0.00556616173
0.00552169327
0.00553914837
0.00548140671
0.00545475381
0.00541727237
0.00530767421
0.00524059031
0.00512321797
0.00504481197
0.00488881789
0.00478696492
0.00474908406
0.00470185722
0.00468795222
0.00468298584
0.00467263021
0.00464520028
0.0046083797
0.00456046893
0.0044844224
0.00438076198
0.00426315387
0.00414652441
0.00404474404
0.00396947945
0.00392673491
0.00391591992
0.00393215781
0.00396449672
0.00398520926
0.0040517911
0.00412972664
0.00420634914
0.00427621788
0.00433506419
0.00437883918
0.00440388522
0.00440736743
0.00438780642
0.00434565364
0.00428380902
0.00420799502
0.0041268793
0.00405179394
0.00399584839
0.00397221936
0.00398984474
0.00402934163
0.00416959546
0.00434125218
0.00454211081
0.00476115428
0.00498425994
0.00519741957
0.00538868339
0.00554928145
0.00567423915
0.00576229746
0.00581563526
0.00583917973
0.0058410792
0.00583306759
0.000257278683
0.000250845128
0.000245189145
0.000240245611
0.00023520288
0.000231068585
0.000226599462
0.000223319088
0.000219580609
0.000217217577
0.000214411045
0.000213067558
0.000211338378
0.000211089015
0.000211148101
0.000211595369
0.000213228403
0.000214802652
0.000218292368
0.000221742513
0.000226590701
0.000232328124
0.000238556637
0.000246731442
0.000254707485
0.000265131076
0.000275248351
0.000287749113
0.000300300317
0.000315099133
0.000330624639
0.000347720981
0.000366204921
0.000385417285
0.000406399208
0.00042767742
0.000450681127
0.000473570195
0.00049778737
0.000521822163
0.000546980396
0.000572406356
0.000598827768
0.000625850798
0.00065357708
0.000681774905
0.000710310038
0.000739144973
0.000768254466
0.00079777824
0.000827745116
0.000858354568
0.000889590684
0.000921640895
0.000954445575
0.000988162827
0.00102271549
0.00105815382
0.0010943453
0.00113117973
0.00116846931
0.00120590521
0.00124329909
0.00128009493
0.00131634803
0.00135135855
0.00138554756
0.00141855943
0.00145115899
0.00148329277
0.00151548653
0.00154804999
0.00158033117
0.00161354652
0.00164524601
0.00167759322
0.00170886044
0.00173920895
0.00176823739
0.00179631382
0.00182310499
0.00184857709
0.00187312306
0.00189665622
0.00191947134
0.00194121917
0.00196288723
0.0019833141
0.00200299334
0.00202245346
0.00204108178
0.00205921162
0.0020766903
0.00209344762
0.00210941339
0.00212455634
0.00213878963
0.00215215088
0.00216455963
0.00217624158
0.00218739754
0.0021980589
0.0022081478
0.00221790569
0.00222693443
0.002235467
0.00224360311
0.00225057581
0.00225700062
0.0022622137
0.00226690853
0.00227054633
0.00227287141
0.00227409954
0.00227425456
0.00227331227
0.00227124683
0.00226803669
0.00226366906
0.00225816675
0.0022516237
0.00224428628
0.00223658463
0.00222921868
0.00222317997
0.00221941096
0.00221863089
0.00222183207
0.00222824617
0.00223805582
0.00225138955
0.00226754479
0.00228600157
0.00230646284
0.00232855548
0.00235191945
0.00237673708
0.00240261998
0.00242915484
0.00245670572
0.00248549485
0.00251576072
0.00254777749
0.00258165917
0.00261703237
0.00265317016
0.0026895106
0.00272580551
0.00276201457
0.00279816429
0.00283434955
0.00287070423
0.00290735228
0.00294437198
0.00298186691
0.00302003318
0.00305908409
0.00309901238
0.00313984783
0.00318164039
0.00322442511
0.00326822107
0.00331303227
0.00335884791
0.00340564407
0.00345338412
0.00350202059
0.00355149659
0.00360174706
0.00365270066
0.00370428132
0.00375642093
0.00380909978
0.00386258283
0.00391624692
0.00396955915
0.004023032
0.00407662179
0.00413024092
0.00418380315
0.00423722127
0.00429044208
0.00434345329
0.00439620618
0.0044486091
0.00450071363
0.00455269811
0.00460504553
0.00465732357
0.00471025424
0.00476471317
0.00482022166
0.00487955893
0.00493896818
0.00500257806
0.00506655077
0.00513120795
0.00520383448
0.00524728907
0.00529176937
0.00534396363
0.00537861587
0.00546454232
0.00543379974
0.00546488715
0.00548456052
0.0054879012
0.00556972925
0.00552033761
0.00553270448
0.00547673941
0.00545627922
0.0054243815
0.0053081364
0.00523789679
0.00511994875
0.00504478379
0.00488554835
0.00478566911
0.00474910841
0.00469941983
0.0046869655
0.00468472217
0.00467418163
0.00464467626
0.00460714342
0.00456074307
0.00448641768
0.00438351337
0.00426639316
0.00415040569
0.00404912591
0.00397405955
0.00393134645
0.00392048966
0.00393663907
0.00396887498
0.00398823368
0.00405566762
0.00413353705
0.00420986174
0.00427944851
0.00433807222
0.00438168727
0.00440663459
0.00441007867
0.00439054044
0.00434847086
0.00428676628
0.00421114089
0.00413024816
0.00405539989
0.00399968072
0.00397624307
0.00399403954
0.00403209637
0.00417407747
0.0043451978
0.00454566969
0.00476432188
0.00498701815
0.00519976714
0.00539063973
0.00555088613
0.00567554472
0.00576335952
0.00581650755
0.005839914
0.00584171982
0.00583365692
0.000176542069
0.000176883119
0.000178393785
0.000180932262
0.000184412487
0.000189110394
0.000194528484
0.000201474337
0.000208986376
0.000218256955
0.000228055075
0.0002395229
0.000251583501
0.000264873865
0.000278980852
0.000293737942
0.000309509246
0.000325510609
0.000342433983
0.000359502133
0.000376969741
0.000395058954
0.000412974109
0.000431853083
0.000449968604
0.000468997023
0.000487454811
0.000506516837
0.000525541834
0.000545363589
0.00056516566
0.00058550909
0.000605803097
0.000626198066
0.000646519849
0.000666462033
0.000686593634
0.000706295705
0.000726665391
0.000746838478
0.000767963028
0.000789070802
0.000811033984
0.00083321989
0.000855749041
0.000878560676
0.00090162732
0.000924994732
0.000948692811
0.000972824699
0.000997399836
0.00102251451
0.00104815168
0.00107440599
0.00110126726
0.00112884191
0.00115711252
0.00118614563
0.00121587133
0.00124626858
0.00127716327
0.00130844072
0.00133982241
0.00137114501
0.0014022689
0.00143266446
0.001462731
0.00149217075
0.00152144032
0.0015504531
0.00157955367
0.00160888775
0.0016380285
0.00166778953
0.00169647195
0.00172558585
0.00175389689
0.00178151846
0.00180807922
0.00183410614
0.00185875988
0.00188238955
0.00190537285
0.001927449
0.00194879905
0.00196927386
0.00198930855
0.00200863716
0.00202720903
0.00204532104
0.00206278228
0.00207968555
0.00209597568
0.00211159443
0.00212649062
0.00214062074
0.00215389905
0.00216635651
0.00217789741
0.00218886475
0.00219933536
0.00220931352
0.00221875096
0.00222788272
0.00223623271
0.0022442561
0.00225182486
0.00225817012
0.00226410468
0.00226910935
0.0022730557
0.00227613338
0.00227808829
0.00227896064
0.00227876907
0.00227750664
0.0022751592
0.00227171887
0.00226719185
0.00226162668
0.00225515036
0.00224804374
0.00224076231
0.0022340048
0.00222871893
0.00222576334
0.00222578847
0.00222950314
0.00223670082
0.00224684616
0.00226041029
0.00227669944
0.00229518861
0.00231563467
0.00233766102
0.00236105384
0.00238573515
0.00241139588
0.00243792621
0.00246552946
0.00249439633
0.00252477502
0.00255692204
0.002590871
0.00262617732
0.00266214441
0.00269828468
0.00273439101
0.00277043467
0.00280644982
0.002842526
0.00287879333
0.00291537133
0.00295232809
0.00298976631
0.00302788993
0.00306691496
0.00310679976
0.00314758671
0.00318932692
0.00323205453
0.00327578786
0.00332053047
0.00336627139
0.00341298682
0.00346064023
0.00350918468
0.00355856377
0.00360871301
0.00365956162
0.00371103408
0.00376306263
0.00381563036
0.00386904511
0.00392258894
0.00397572847
0.00402909432
0.00408257838
0.00413609028
0.0041895394
0.00424284136
0.0042959621
0.00434889643
0.00440155839
0.00445381342
0.00450579412
0.00455778129
0.00461020839
0.00466227503
0.00471473101
0.00476833766
0.00482520423
0.00488512439
0.00494306324
0.00500424122
0.00506895368
0.00513530784
0.00521248461
0.00524845094
0.00528029807
0.00534720678
0.00538360051
0.00548132157
0.00542671083
0.00545064318
0.00548633012
0.00549164047
0.00557751836
0.00550322844
0.00551587753
0.00547795499
0.0054659154
0.00543576261
0.00529878372
0.00523440102
0.00511964012
0.00504445983
0.00491312006
0.00479491122
0.00475004115
0.00469517905
0.00468222665
0.00468411528
0.00467508316
0.00464314282
0.00460293177
0.0045592403
0.00448949465
0.00438918938
0.00427330895
0.00415861644
0.00405843197
0.00398387103
0.00394127947
0.00393035722
0.00394632986
0.00397834814
0.00399479437
0.00406416995
0.00414186439
0.00421753854
0.00428652086
0.00434466951
0.00438794235
0.00441267711
0.0044160377
0.0043965454
0.00435464903
0.00429323658
0.00421800457
0.00413757712
0.00406322479
0.0040079822
0.00398495254
0.00400313852
0.00404703069
0.00418401204
0.00435379518
0.00455344908
0.00477126594
0.00499307962
0.00520493783
0.00539496201
0.00555444619
0.00567845184
0.00576573078
0.00581846308
0.00584156711
0.00584316243
0.00583497644
0.000276236834
0.000289158949
0.000297109654
0.00030912638
0.000322657307
0.000338124335
0.000354368084
0.000371794398
0.000389314482
0.000407545052
0.000425241338
0.00044283318
0.000459437165
0.000475733663
0.000491127875
0.00050619394
0.000520838652
0.000534951763
0.000548971413
0.00056246235
0.000575982754
0.000588927563
0.000601968528
0.000614756758
0.000627676781
0.00064153193
0.000655158099
0.000669786257
0.000684826955
0.000700582262
0.000716572927
0.000732988486
0.000749481652
0.000766178291
0.000783037024
0.000800104491
0.000817655251
0.000835475112
0.000854071801
0.000872863935
0.000892510067
0.000912178552
0.000932560609
0.000953051346
0.000973762215
0.000994685531
0.00101580046
0.00103714073
0.00105872534
0.00108062297
0.00110284064
0.00112545178
0.00114845519
0.00117192936
0.00119589629
0.00122042273
0.00124551719
0.00127122404
0.00129749552
0.0013243107
0.00135152227
0.00137908971
0.00140671104
0.00143462304
0.0014621655
0.00148926514
0.00151645951
0.00154331319
0.0015701458
0.00159689315
0.00162377102
0.0016508317
0.00167779785
0.00170517049
0.00173184191
0.0017587478
0.00178510987
0.00181095751
0.0018360627
0.00186057274
0.0018842616
0.001907096
0.00192919964
0.00195057742
0.0019712123
0.00199110374
0.0020104148
0.00202909816
0.00204706104
0.0020644389
0.00208117712
0.00209732873
0.00211284246
0.00212768642
0.00214183943
0.00215523641
0.00216780493
0.00217956189
0.00219041646
0.00220089957
0.00221083833
0.00222025284
0.00222915018
0.00223773483
0.00224544728
0.00225309067
0.00226009267
0.00226601709
0.00227133167
0.00227580287
0.00227930026
0.00228188221
0.00228342873
0.00228393126
0.0022833988
0.00228183444
0.00227923877
0.00227562506
0.00227102886
0.00226553683
0.0022593219
0.00225270871
0.00224617858
0.00224041642
0.00223629508
0.00223455717
0.00223575296
0.00224036822
0.00224833744
0.00225929163
0.00227311592
0.00228962826
0.0023081945
0.00232865777
0.00235073807
0.00237400402
0.00239852822
0.00242409166
0.00245066314
0.0024783616
0.00250737624
0.002537963
0.00257031937
0.00260435467
0.00263954654
0.00267527001
0.00271113892
0.00274699349
0.00278281605
0.00281865677
0.00285459206
0.00289074837
0.00292723953
0.00296411679
0.00300148406
0.00303955767
0.00307855839
0.00311838618
0.00315911025
0.00320078147
0.00324343237
0.00328708014
0.00333172778
0.00337736404
0.00342396543
0.00347149553
0.00351990823
0.00356914791
0.00361915086
0.00366984717
0.00372116215
0.00377302864
0.00382543369
0.00387875624
0.00393200863
0.00398499371
0.00403820971
0.0040915394
0.00414489176
0.00419816754
0.0042512972
0.00430428623
0.00435711959
0.00440961824
0.00446161245
0.00451345548
0.00456554203
0.00461810333
0.00466960695
0.00472125701
0.00477533541
0.00483292104
0.00489395591
0.00494862008
0.0050067689
0.00507209003
0.00514165346
0.00522967469
0.00524873262
0.00526585028
0.00534929982
0.00538621623
0.00551789347
0.0054177453
0.00543299021
0.00548438152
0.0054838754
0.00560575888
0.00547972945
0.00548592713
0.00546591629
0.00547137557
0.00547112455
0.0052919628
0.0052216412
0.00510333846
0.00503947341
0.00494409253
0.00480740762
0.00474319595
0.00467639108
0.00467123499
0.00468542133
0.00467563304
0.00463491872
0.00458975422
0.00455255793
0.00449136921
0.00439506763
0.00428101979
0.00416902927
0.0040713428
0.00399801794
0.00395585794
0.00394499154
0.00396081349
0.00399257771
0.00400447402
0.00407714946
0.00415447587
0.00422914898
0.0042972299
0.0043546732
0.00439743602
0.00442185143
0.00442508362
0.00440565475
0.0043640097
0.00430302357
0.00422836673
0.00414862053
0.00407499604
0.0040204561
0.00399803249
0.00401686018
0.00406883195
0.00419858957
0.00436672099
0.00456519201
0.00478176913
0.00500226262
0.00521278354
0.00540153401
0.00555987305
0.00568289313
0.00576935969
0.00582146331
0.00584410867
0.00584537985
0.00583699515
0.000344377266
0.000371194508
0.000377595191
0.00039961511
0.000418324088
0.000434465417
0.000448336238
0.000460943323
0.000472248401
0.000483151179
0.000493301172
0.000503804714
0.000513957466
0.000524742186
0.000535290281
0.000547099384
0.000558381949
0.00056984765
0.000582004993
0.000594282365
0.000607021578
0.000619857812
0.000633433151
0.000647183542
0.000661887777
0.000676815956
0.000692528307
0.000708792911
0.000725333018
0.000742233026
0.000759232724
0.000776464678
0.000793783743
0.000811364314
0.000829221819
0.000847471834
0.000866195122
0.000885277403
0.000904895909
0.000924674002
0.000944990573
0.000965247302
0.000985994677
0.00100674192
0.00102758228
0.00104851806
0.00106951332
0.00109058897
0.00111176863
0.00113312141
0.00115467566
0.00117650464
0.00119862569
0.00122110983
0.00124398174
0.0012672766
0.00129101651
0.00131521737
0.001339843
0.00136485731
0.00139017138
0.00141569869
0.00144131372
0.00146692661
0.00149249267
0.00151777066
0.00154301282
0.00156809443
0.00159323252
0.00161836868
0.00164362988
0.00166904262
0.00169441874
0.00172007945
0.00174530819
0.00177064252
0.00179567538
0.00182035605
0.00184454932
0.00186825569
0.00189141349
0.0019139431
0.00193581853
0.00195710084
0.00197763561
0.00199756171
0.0020168697
0.00203552805
0.0020535019
0.00207085373
0.00208755672
0.00210364602
0.00211904928
0.00213377413
0.00214781512
0.00216106459
0.00217348043
0.00218504017
0.00219576242
0.00220628248
0.00221610685
0.00222535594
0.00223410803
0.00224248622
0.00225015523
0.00225741482
0.00226411373
0.00226990366
0.00227493865
0.00227912975
0.0022823832
0.002284705
0.00228603365
0.00228635386
0.0022856741
0.00228400963
0.00228138097
0.00227783067
0.00227343318
0.0022683227
0.00226272393
0.00225700356
0.00225165587
0.00224732911
0.00224479037
0.00224464744
0.00224733482
0.00225316996
0.00226212555
0.00227390478
0.00228829798
0.00230510838
0.00232389087
0.00234443074
0.00236649388
0.002389779
0.00241424497
0.00243985105
0.00246654881
0.00249444271
0.00252373252
0.00255465338
0.00258729237
0.00262140403
0.00265643229
0.00269187387
0.00272744287
0.00276302402
0.00279861487
0.00283426653
0.00287005835
0.00290610575
0.00294251648
0.00297931809
0.00301665994
0.00305470258
0.00309365037
0.00313341941
0.00317408049
0.00321567978
0.00325824745
0.00330179933
0.00334633775
0.00339185149
0.00343831657
0.00348569778
0.00353394974
0.00358301779
0.00363283931
0.0036833456
0.00373446327
0.00378612603
0.00383832411
0.00389154235
0.00394436746
0.00399719987
0.00405022181
0.00410334618
0.00415648068
0.00420953332
0.00426246208
0.00431527782
0.00436790162
0.00442011421
0.00447187432
0.00452367616
0.00457571797
0.00462764512
0.00467842259
0.00473000702
0.00478479936
0.00484140139
0.00489909609
0.00495440539
0.00501627388
0.00508007028
0.00514884441
0.00522055262
0.00525611721
0.00528842944
0.00535121228
0.00539887963
0.00549368772
0.00545241291
0.00545482098
0.00548621058
0.00548843494
0.00559668553
0.00552732448
0.00550697353
0.00546813662
0.00546463247
0.00549139652
0.0053520406
0.00523250472
0.00510969702
0.00504882788
0.00498131758
0.00485025407
0.00475007718
0.00468170032
0.00468370515
0.00470206189
0.0046821927
0.00463480702
0.00459552923
0.00456051745
0.0044964298
0.00439815791
0.00428656738
0.00417842552
0.00408374191
0.00401286234
0.00397261324
0.00396291905
0.00397917101
0.00401097546
0.00401644772
0.00409454783
0.00417115443
0.00424448888
0.00431141322
0.00436795461
0.00441006206
0.00443406511
0.00443713163
0.00441778603
0.0043764682
0.00431603709
0.00424212971
0.00416327237
0.00409059949
0.00403698186
0.00401535804
0.00403496306
0.004091888
0.00421746623
0.00438383901
0.00458080923
0.00479576155
0.00501451092
0.00522326577
0.00541033473
0.00556715115
0.00568885006
0.00577423245
0.005825504
0.00584753447
0.00584836227
0.00583970255
0.000271157485
0.000143239933
0.000177483055
0.000203402865
0.000234212167
0.000263745976
0.000291399552
0.000316062074
0.000338432049
0.000359728025
0.000379770649
0.000399361129
0.000418072582
0.000436581795
0.000454614794
0.00047209682
0.000489540432
0.000506701742
0.000523908608
0.00054104742
0.000558381237
0.000575713952
0.000593559419
0.000611429073
0.000629941759
0.000648448286
0.000667382333
0.000686451163
0.000705524218
0.000724679746
0.00074384024
0.000763120294
0.000782454136
0.000801987899
0.000821740347
0.000841795854
0.000862156795
0.000882743649
0.000903642664
0.000924615061
0.000945939937
0.000967166383
0.000988750157
0.00101025948
0.00103177175
0.00105327247
0.00107473242
0.00109617798
0.00111765098
0.00113923054
0.00116095611
0.0011828921
0.00120506059
0.00122752074
0.00125028945
0.00127339863
0.00129686781
0.00132070201
0.00134487979
0.00136936662
0.00139409213
0.00141896483
0.00144390569
0.00146877995
0.00149362548
0.00151823369
0.00154279643
0.001567219
0.00159170801
0.00161618173
0.00164076049
0.00166546657
0.0016901398
0.0017150403
0.00173961733
0.00176423604
0.00178869564
0.00181287843
0.00183668902
0.00186011268
0.00188310453
0.00190558491
0.00192748873
0.00194887214
0.00196952629
0.00198971376
0.00200928027
0.00202819822
0.00204647426
0.00206413771
0.00208116048
0.00209756448
0.00211325811
0.0021282927
0.00214264408
0.00215616357
0.00216884834
0.00218069195
0.00219180849
0.00220251646
0.00221260276
0.00222212013
0.00223110743
0.00223966696
0.00224755698
0.00225493008
0.00226171631
0.00226764319
0.0022727714
0.00227704066
0.0022803777
0.0022827774
0.0022841987
0.00228463194
0.00228409161
0.00228260488
0.00228020959
0.0022769724
0.0022729976
0.00226845266
0.0022635927
0.00225880176
0.00225456542
0.00225148839
0.00225025477
0.00225138026
0.00225522609
0.00226202899
0.00227176307
0.00228417109
0.00229903137
0.00231614176
0.00233514289
0.00235582145
0.00237795969
0.00240132936
0.00242589806
0.00245163923
0.00247852353
0.00250666095
0.0025362436
0.00256746863
0.00260031284
0.00263444498
0.00266934688
0.00270460338
0.00273998493
0.00277540203
0.00281085743
0.00284640414
0.00288212036
0.00291811536
0.00295448991
0.00299125848
0.00302862011
0.00306666457
0.00310557689
0.00314531981
0.0031859499
0.00322750972
0.00327002771
0.00331351876
0.00335798478
0.00340341463
0.00344978372
0.0034970583
0.00354519342
0.0035941352
0.00364382197
0.00369418593
0.00374515494
0.00379666333
0.00384870268
0.00390186059
0.0039543636
0.00400705385
0.00405992469
0.00411288935
0.00416585392
0.00421873722
0.00427151891
0.00432419752
0.00437663621
0.00442862084
0.00448024888
0.00453205212
0.00458397423
0.00463534532
0.00468555008
0.00473736902
0.00479253401
0.00484808875
0.00490316131
0.00495715338
0.00502321557
0.00509023481
0.00515386466
0.00520916719
0.00525039138
0.00530569851
0.00537208963
0.00541290564
0.00545497828
0.00544855119
0.00548740952
0.0055251793
0.00551114093
0.00556102002
0.0055237761
0.00555543198
0.00553358427
0.00548242096
0.00545723429
0.00535628609
0.00528407532
0.00518036489
0.0050757341
0.00497680518
0.00486612378
0.00479791643
0.00473295014
0.00470259847
0.00470161467
0.00469107852
0.00465895853
0.00461680116
0.00456940111
0.00449976539
0.00440273782
0.00429209384
0.00418422253
0.0040912504
0.0040231121
0.00398524686
0.00397701461
0.00399388125
0.00402595452
0.00402553095
0.00410914424
0.00418482603
0.00425703601
0.00432303495
0.00437885692
0.00442044057
0.0044441154
0.00444705361
0.00442778176
0.00438673639
0.00432676332
0.0042534714
0.00417534079
0.00410344279
0.00405057317
0.00402959323
0.00404977169
0.00410875482
0.00423263081
0.00439779816
0.00459356926
0.0048071909
0.00502451089
0.00523182234
0.00541751584
0.00557308395
0.0056937054
0.00577821129
0.00582880762
0.00585033377
0.00585080128
0.00584192267
1.14257473e-06
5.16712777e-07
2.67942625e-07
1.86494149e-07
1.6615828e-07
1.68290147e-07
1.74592049e-07
1.91246865e-07
2.05637172e-07
2.10834221e-07
2.15982836e-07
2.29993653e-07
2.43153463e-07
2.46866486e-07
2.49101849e-07
2.57290803e-07
2.66657225e-07
2.68954378e-07
2.71043984e-07
2.7851329e-07
2.8471745e-07
2.85805317e-07
2.87458902e-07
2.9399261e-07
2.99042497e-07
2.99907201e-07
3.0025567e-07
3.01332612e-07
3.05202023e-07
3.12335668e-07
3.16422755e-07
3.18213366e-07
3.22067296e-07
3.27504231e-07
3.31725669e-07
3.3954149e-07
3.52369355e-07
3.88175658e-07
4.26161726e-07
6.4490278e-07
1.45641888e-05
9.84675572e-06
7.8392647e-06
7.67103868e-06
7.48680061e-06
7.32001579e-06
6.9040224e-06
7.04399219e-06
7.38090084e-06
7.27004148e-06
6.95502326e-06
7.0206433e-06
7.59628758e-06
7.67384521e-06
7.48065431e-06
7.43331473e-06
7.86579392e-06
7.91316195e-06
7.77971245e-06
7.83673047e-06
8.16832556e-06
8.16900981e-06
8.05728353e-06
8.1331293e-06
8.42512472e-06
8.44666453e-06
8.39900197e-06
8.33406148e-06
8.30284169e-06
8.53577603e-06
8.73981774e-06
8.75177137e-06
8.75766399e-06
8.90784738e-06
8.93833787e-06
8.9331124e-06
8.87651021e-06
8.8783767e-06
8.9403576e-06
9.07758916e-06
4.79176237e-05
3.54802174e-05
2.96375011e-05
2.57324552e-05
2.32030313e-05
2.09480596e-05
1.88484763e-05
1.6976909e-05
1.58548736e-05
1.47774031e-05
1.36499791e-05
1.28011842e-05
1.26320221e-05
1.23585707e-05
1.18597464e-05
1.14319209e-05
1.13808585e-05
1.12930717e-05
1.10396236e-05
1.08496566e-05
1.09505333e-05
1.08994729e-05
1.07445158e-05
1.06453152e-05
1.07976779e-05
1.08423575e-05
1.07878766e-05
1.06827837e-05
1.05819929e-05
1.06275207e-05
1.08737944e-05
1.09081128e-05
1.09596433e-05
1.11084189e-05
1.11333046e-05
1.11291352e-05
1.10381008e-05
1.0903461e-05
1.07281405e-05
1.04270779e-05
6.00320545e-05
5.44890967e-05
4.82940261e-05
4.26042593e-05
3.7625556e-05
3.34508987e-05
2.97316196e-05
2.62807829e-05
2.36299363e-05
2.13925299e-05
1.91244743e-05
1.72503461e-05
1.60625216e-05
1.50942138e-05
1.40184104e-05
1.30927426e-05
1.2533505e-05
1.20363383e-05
1.14738168e-05
1.10960375e-05
1.08636524e-05
1.06123145e-05
1.03695752e-05
1.01926486e-05
1.00816193e-05
1.00665433e-05
9.99519116e-06
9.85893704e-06
9.73333906e-06
9.69373724e-06
9.777401e-06
9.81188203e-06
1.00009168e-05
1.02117328e-05
1.02750035e-05
1.02162758e-05
1.0199653e-05
1.04833257e-05
1.08061453e-05
1.13763227e-05
5.92010078e-05
5.08026391e-05
4.28964185e-05
3.6842612e-05
3.18680375e-05
2.829029e-05
2.53842672e-05
2.25334097e-05
2.04630747e-05
1.90604398e-05
1.74389353e-05
1.58944488e-05
1.49207598e-05
1.44087076e-05
1.38586946e-05
1.3204099e-05
1.27039154e-05
1.24357689e-05
1.20927604e-05
1.19725103e-05
1.19485522e-05
1.17176497e-05
1.16864257e-05
1.16497018e-05
1.16729345e-05
1.19156485e-05
1.19747642e-05
1.18030272e-05
1.17288887e-05
1.19254867e-05
1.19236494e-05
1.21137678e-05
1.27625658e-05
1.32400708e-05
1.33125184e-05
1.31511063e-05
1.33073489e-05
1.4340262e-05
1.5236297e-05
1.56632802e-05
4.22260437e-05
2.85917542e-05
2.12616769e-05
1.77257033e-05
1.53368228e-05
1.41841057e-05
1.29825548e-05
1.18932506e-05
1.11105126e-05
1.11608484e-05
1.08245945e-05
1.01720711e-05
9.82931879e-06
1.05532959e-05
1.06696047e-05
1.03511997e-05
1.04217818e-05
1.06742791e-05
1.05965766e-05
1.10353086e-05
1.13473991e-05
1.12496463e-05
1.15438675e-05
1.17599414e-05
1.20418529e-05
1.2552293e-05
1.26934428e-05
1.2550925e-05
1.26775793e-05
1.30342136e-05
1.30670117e-05
1.34790132e-05
1.44647694e-05
1.49325574e-05
1.48138413e-05
1.45320085e-05