/*--------------------------------*- C++ -*----------------------------------*\
  =========                 |
  \\      /  F ield         | OpenFOAM: The Open Source CFD Toolbox
   \\    /   O peration     | Website:  https://openfoam.org
    \\  /    A nd           | Version:  6
     \\/     M anipulation  |
\*---------------------------------------------------------------------------*/
FoamFile
{
    version     2.0;
    format      ascii;
    class       volScalarField;
    location    "25000";
    object      C;
}
// * * * * * * * * * * * * * * * * * * * * * * * * * * * * * * * * * * * * * //

dimensions      [0 0 0 0 0 0 0];

internalField   nonuniform List<scalar> 
44870
(
1.82119722e-114
3.86263428e-114
1.50572757e-113
1.32607769e-111
2.40334416e-109
4.41260084e-107
8.18469712e-105
1.53595763e-102
2.92103828e-100
5.63873815e-98
1.1067935e-95
2.21238272e-93
4.51098866e-91
9.39427064e-89
2.00100399e-86
4.36349857e-84
9.75268134e-82
2.23545794e-79
5.25945721e-77
1.2704199e-74
3.1524916e-72
8.03552196e-70
2.10480756e-67
5.66315037e-65
1.5654926e-62
4.4427512e-60
1.29430687e-57
3.86627328e-55
1.1836203e-52
3.70702783e-50
1.18638167e-47
3.86863889e-45
1.28205046e-42
4.29534049e-40
1.44632735e-37
4.84196388e-35
1.5878176e-32
4.9635812e-30
1.40387844e-27
3.27106567e-25
4.9422773e-114
4.02259627e-114
5.43507043e-114
3.55901948e-112
5.93391784e-110
1.00589724e-107
1.72294569e-105
2.99074458e-103
5.27468616e-101
9.47965081e-99
1.74044373e-96
3.27349749e-94
6.32255049e-92
1.25747651e-89
2.58151142e-87
5.48563125e-85
1.2098088e-82
2.77671669e-80
6.65140634e-78
1.66697913e-75
4.38232069e-73
1.21036039e-70
3.5174539e-68
1.0755666e-65
3.46040205e-63
1.16939462e-60
4.14528105e-58
1.53714441e-55
5.95131546e-53
2.39824546e-50
1.00380738e-47
4.34827866e-45
1.94394074e-42
8.91951029e-40
4.177459e-37
1.97613124e-34
9.31459338e-32
4.27578016e-29
1.8222355e-26
6.79827949e-24
4.01410864e-114
8.82874882e-114
1.01060066e-113
4.09535223e-113
4.99159026e-111
7.39723413e-109
1.11515883e-106
1.71618797e-104
2.69704095e-102
4.35089844e-100
7.20577539e-98
1.231455e-95
2.16995032e-93
3.96762663e-91
7.50638014e-89
1.48238222e-86
3.04501126e-84
6.56117691e-82
1.47877521e-79
3.51502202e-77
8.7900234e-75
2.33449984e-72
6.58654899e-70
2.00925231e-67
6.72863455e-65
2.58056679e-62
1.17317373e-59
6.49244221e-57
4.24740294e-54
3.14248552e-51
2.48984426e-48
2.05497741e-45
1.71593195e-42
1.43891276e-39
1.18757673e-36
9.63962647e-34
7.51605569e-31
5.62893257e-28
3.83689977e-25
2.36941154e-22
2.84017081e-114
5.07646743e-114
7.12965317e-114
1.77485053e-113
1.32573107e-112
1.55069467e-110
1.99511104e-108
2.65388826e-106
3.63853221e-104
5.17866725e-102
7.62888834e-100
1.17284522e-97
1.87254966e-95
3.13916865e-93
5.47876984e-91
1.00996316e-88
1.94960068e-86
3.99801786e-84
8.70373612e-82
2.08153518e-79
5.89029857e-77
2.35687454e-74
1.47935323e-71
1.27930654e-68
1.27067926e-65
1.33438169e-62
1.43495e-59
1.56681044e-56
1.7191232e-53
1.89232814e-50
2.06496337e-47
2.23294775e-44
2.3608327e-41
2.44215453e-38
2.43793723e-35
2.35108807e-32
2.15526303e-29
1.87557836e-26
1.49870864e-23
1.07812715e-20
1.34939259e-113
7.03426416e-114
8.06216557e-114
4.93233642e-114
3.01606878e-114
1.0886228e-112
1.22899671e-110
1.56687411e-108
2.07766116e-106
2.87905389e-104
4.15867652e-102
6.30127316e-100
1.00052206e-97
1.7019728e-95
3.32037452e-93
9.63217939e-91
5.36173183e-88
4.56302088e-85
4.41109766e-82
4.38044074e-79
4.36973627e-76
4.35767e-73
4.34170561e-70
4.32097291e-67
4.29679942e-64
4.26972062e-61
4.2403146e-58
4.20884485e-55
4.17690101e-52
4.14326936e-49
4.11031631e-46
4.07631411e-43
4.04349187e-40
4.00939374e-37
3.97755441e-34
3.94586308e-31
3.91555553e-28
3.88609837e-25
3.85747423e-22
3.85403951e-19
2.68900275e-23
5.78152769e-23
7.82124869e-23
1.29364151e-22
5.58276659e-21
4.2629083e-19
1.4612938e-18
2.91930446e-18
4.40225211e-18
5.58450411e-18
6.27476004e-18
6.61866474e-18
6.85126904e-18
7.13789073e-18
7.46667254e-18
7.73334972e-18
7.8357196e-18
7.69698962e-18
7.41793797e-18
7.23917439e-18
7.45282109e-18
8.18559509e-18
9.35860704e-18
1.07428205e-17
1.20610545e-17
1.30909188e-17
1.38138703e-17
1.50820938e-17
1.85066403e-17
2.62300827e-17
3.9585211e-17
5.87399042e-17
8.25769775e-17
1.08559404e-16
1.34663359e-16
1.59859487e-16
1.90313573e-16
2.4021158e-16
3.32302623e-16
4.88974099e-16
7.2621583e-16
1.04546935e-15
1.43327315e-15
1.86336297e-15
2.3162468e-15
2.8048601e-15
3.42623601e-15
4.38288771e-15
5.95384219e-15
8.41663831e-15
1.19497942e-14
1.65635325e-14
2.20799696e-14
2.82145398e-14
3.47890246e-14
4.2122083e-14
5.14154682e-14
6.48986724e-14
8.54754621e-14
1.15936654e-13
1.58057473e-13
2.12124831e-13
2.77395151e-13
3.5329039e-13
4.40814966e-13
5.42702085e-13
6.62707748e-13
8.03344587e-13
9.64826449e-13
1.14522572e-12
1.3454204e-12
1.57717042e-12
1.87169593e-12
2.28417736e-12
2.88239948e-12
3.73392317e-12
4.87138937e-12
6.28545167e-12
7.91264834e-12
9.65169787e-12
1.13891208e-11
1.30421097e-11
1.46105578e-11
1.62193671e-11
1.81424667e-11
2.07788182e-11
2.45921259e-11
2.99907352e-11
3.7227481e-11
4.63193713e-11
5.70204809e-11
6.8878528e-11
8.13171369e-11
9.37723431e-11
1.0582538e-10
1.17325111e-10
1.28482348e-10
1.39929767e-10
1.5271963e-10
1.68264919e-10
1.88190169e-10
2.14156023e-10
2.47686334e-10
2.90070503e-10
3.42264585e-10
4.04972093e-10
4.78675388e-10
5.63624812e-10
6.60102499e-10
7.68315239e-10
8.8860304e-10
1.02153162e-09
1.16818992e-09
1.33066979e-09
1.51221668e-09
1.71741667e-09
1.95270923e-09
2.22708732e-09
2.55269731e-09
2.94529359e-09
3.42515975e-09
4.01941269e-09
4.76721556e-09
5.72972541e-09
7.0074071e-09
8.75153889e-09
1.11540271e-08
1.439949e-08
1.8603223e-08
2.37737655e-08
2.98147404e-08
3.65601107e-08
4.38378932e-08
5.15189529e-08
5.95401845e-08
6.79531584e-08
7.69114041e-08
8.66864303e-08
9.76034708e-08
1.09820952e-07
1.23842677e-07
1.37752045e-07
1.43020804e-07
1.25107432e-07
9.10375799e-08
6.15805066e-08
4.20428557e-08
2.91374829e-08
2.04243737e-08
1.44432752e-08
1.02862923e-08
7.36909764e-09
5.30591416e-09
3.83721738e-09
2.7859054e-09
2.02977936e-09
1.48366574e-09
1.08775071e-09
7.99789212e-10
5.90115784e-10
4.37380395e-10
3.2523502e-10
2.42420493e-10
1.81019306e-10
1.35365027e-10
1.01350007e-10
7.59758206e-11
5.70312674e-11
4.28732056e-11
3.22802275e-11
2.43444058e-11
1.83908043e-11
1.39177336e-11
1.05523356e-11
8.01533715e-12
6.09796903e-12
4.64714861e-12
3.54769627e-12
2.71306697e-12
2.07836486e-12
1.59486149e-12
1.22590081e-12
9.43862008e-13
7.27906542e-13
5.62284571e-13
4.35055319e-13
3.37147511e-13
2.61676099e-13
2.03417733e-13
1.58387112e-13
1.23502584e-13
9.6446143e-14
7.54083074e-14
5.90576214e-14
4.63255557e-14
3.63745579e-14
2.85689333e-14
2.24515397e-14
1.76666541e-14
1.39066363e-14
1.09470759e-14
8.60331015e-15
6.76384518e-15
5.31869299e-15
4.18041055e-15
3.28471777e-15
2.57598799e-15
2.0251554e-15
1.59272029e-15
1.25145706e-15
9.81276635e-16
7.67251016e-16
5.99729538e-16
4.67618771e-16
3.63685336e-16
2.81684e-16
2.17308753e-16
1.6663766e-16
1.27431049e-16
9.78279361e-17
7.48559884e-17
5.72635345e-17
4.38730086e-17
3.3645831e-17
2.58175741e-17
1.98110211e-17
1.51925232e-17
1.16281733e-17
8.86991785e-18
6.74037467e-18
5.10709869e-18
3.86531375e-18
2.92957778e-18
2.2295148e-18
1.70768281e-18
1.31830405e-18
1.02527976e-18
8.0082922e-19
6.34569596e-19
5.07957358e-19
4.0967287e-19
3.32246369e-19
2.70460731e-19
2.20587125e-19
1.79933512e-19
1.46540517e-19
1.18968896e-19
9.61498114e-20
7.72779994e-20
6.17344647e-20
4.90292691e-20
3.87587176e-20
3.05731114e-20
2.41533219e-20
1.91912723e-20
1.53512646e-20
1.25782142e-20
1.04892391e-20
8.90761998e-21
7.6925029e-21
6.73473171e-21
5.95418123e-21
5.29455918e-21
4.71808961e-21
4.20091905e-21
3.72958602e-21
3.29896087e-21
2.91248216e-21
2.58693902e-21
2.367184e-21
7.76642285e-22
1.22642692e-21
1.25737245e-21
2.20074334e-21
1.6582988e-19
1.52855711e-17
4.29521756e-17
7.12631612e-17
9.04464627e-17
9.77758864e-17
9.46475435e-17
9.0871822e-17
9.25505893e-17
9.92560856e-17
1.06401917e-16
1.09816595e-16
1.0776905e-16
1.00417023e-16
9.32741306e-17
9.45682438e-17
1.09102775e-16
1.34240384e-16
1.62577942e-16
1.86752008e-16
2.00991861e-16
2.04488611e-16
2.03647034e-16
2.29794823e-16
3.2546226e-16
5.18934836e-16
8.01994655e-16
1.1363217e-15
1.46731e-15
1.74417328e-15
1.93952533e-15
2.09102594e-15
2.36860814e-15
3.03937705e-15
4.35151616e-15
6.38230224e-15
9.00342331e-15
1.18963625e-14
1.46831835e-14
1.70254048e-14
1.88813605e-14
2.07788801e-14
2.40056822e-14
3.02401628e-14
4.0808936e-14
5.6015825e-14
7.49021017e-14
9.55235759e-14
1.15576381e-13
1.33362775e-13
1.49176429e-13
1.66724665e-13
1.93263458e-13
2.37678248e-13
3.07057149e-13
4.0361346e-13
5.23680144e-13
6.59869046e-13
8.05713713e-13
9.6023173e-13
1.12911284e-12
1.3210757e-12
1.54267311e-12
1.79289976e-12
2.0637263e-12
2.34622793e-12
2.64573774e-12
2.99880921e-12
3.48215454e-12
4.20413686e-12
5.26889393e-12
6.74414211e-12
8.61488932e-12
1.07910192e-11
1.31153033e-11
1.54092676e-11
1.75200639e-11
1.93864587e-11
2.11009501e-11
2.29456778e-11
2.53892292e-11
2.90131497e-11
3.43935969e-11
4.19373496e-11
5.17707095e-11
6.3691091e-11
7.71861792e-11
9.15559291e-11
1.06054131e-10
1.20050187e-10
1.33174508e-10
1.45434839e-10
1.57293683e-10
1.69700687e-10
1.84050129e-10
2.02076515e-10
2.25644866e-10
2.56548636e-10
2.9633513e-10
3.4622885e-10
4.07054199e-10
4.79375305e-10
5.63527963e-10
6.59639617e-10
7.6791965e-10
8.88525582e-10
1.02174945e-09
1.16818642e-09
1.32913523e-09
1.50702136e-09
1.70555839e-09
1.92993234e-09
2.18740675e-09
2.48809867e-09
2.84555119e-09
3.27703537e-09
3.8045853e-09
4.45746017e-09
5.27762419e-09
6.32979104e-09
7.71924436e-09
9.60088684e-09
1.21659866e-08
1.55905956e-08
1.99777704e-08
2.53240937e-08
3.15258389e-08
3.84135951e-08
4.58177699e-08
5.36137093e-08
6.17397162e-08
7.02550673e-08
7.93115332e-08
8.91711411e-08
1.00102084e-07
1.12367508e-07
1.26220374e-07
1.39240254e-07
1.42088643e-07
1.22017228e-07
8.82567253e-08
5.99418288e-08
4.11264565e-08
2.85989295e-08
2.00943867e-08
1.42349649e-08
1.01518708e-08
7.28087143e-09
5.24721419e-09
3.79771966e-09
2.75907328e-09
2.01140848e-09
1.47100171e-09
1.07896615e-09
7.9365777e-10
5.85763564e-10
4.34290466e-10
3.23034022e-10
2.40847409e-10
1.79891632e-10
1.34555729e-10
1.00768892e-10
7.55574859e-11
5.67294187e-11
4.26549283e-11
3.21220382e-11
2.42295079e-11
1.83071609e-11
1.38567137e-11
1.05078021e-11
7.98273517e-12
6.07390673e-12
4.62940748e-12
3.5345975e-12
2.70337385e-12
2.07117542e-12
1.58951765e-12
1.22192014e-12
9.40888919e-13
7.2567985e-13
5.60614096e-13
4.33801065e-13
3.36202895e-13
2.60960366e-13
2.02873877e-13
1.57976131e-13
1.23188533e-13
9.62083534e-14
7.52238691e-14
5.89158862e-14
4.62196222e-14
3.62950127e-14
2.85066418e-14
2.24013323e-14
1.76288953e-14
1.38795887e-14
1.09274439e-14
8.58752997e-15
6.7508763e-15
5.30949783e-15
4.17439203e-15
3.28048656e-15
2.57228611e-15
2.02217996e-15
1.59079364e-15
1.25028866e-15
9.80447487e-16
7.66511637e-16
5.99208323e-16
4.67365215e-16
3.63602608e-16
2.81655989e-16
2.17296006e-16
1.66640758e-16
1.27455314e-16
9.79083807e-17
7.49199243e-17
5.73139244e-17
4.39174404e-17
3.36853653e-17
2.58502747e-17
1.98365195e-17
1.5212345e-17
1.16439536e-17
8.88258054e-18
6.75050638e-18
5.11527827e-18
3.87200024e-18
2.93505292e-18
2.23396086e-18
1.71125459e-18
1.32114945e-18
1.02755043e-18
8.02371899e-19
6.35911145e-19
5.09026149e-19
4.1049341e-19
3.32867855e-19
2.70928919e-19
2.20939343e-19
1.80199172e-19
1.46742327e-19
1.19124073e-19
9.62711757e-20
7.73749335e-20
6.18136775e-20
4.90954291e-20
3.88149509e-20
3.06214398e-20
2.41950685e-20
1.92274498e-20
1.53768826e-20
1.26056378e-20
1.05109701e-20
8.92490623e-21
7.70613078e-21
6.7452982e-21
5.96221024e-21
5.30051763e-21
4.72238759e-21
4.20390941e-21
3.73156891e-21
3.30018716e-21
2.9131606e-21
2.58724602e-21
2.36723365e-21
4.4645805e-20
4.90115235e-20
3.61128506e-20
9.41772556e-20
1.18404471e-17
1.25772323e-15
2.76488389e-15
3.6478198e-15
3.74653389e-15
3.32315671e-15
2.67997632e-15
2.49557564e-15
2.77629768e-15
3.14400434e-15
3.29130315e-15
3.13868721e-15
2.75813475e-15
2.27347564e-15
2.01827365e-15
2.29820461e-15
3.017374e-15
3.81084805e-15
4.34848522e-15
4.48853953e-15
4.2543976e-15
3.78197848e-15
3.46640618e-15
4.43418363e-15
7.50006646e-15
1.23568887e-14
1.77788971e-14
2.24064433e-14
2.53044812e-14
2.6188419e-14
2.54420693e-14
2.49588187e-14
2.86351322e-14
4.0117356e-14
6.00907936e-14
8.55185289e-14
1.11338212e-13
1.32461092e-13
1.45670982e-13
1.5025571e-13
1.50141559e-13
1.55903441e-13
1.82376403e-13
2.40343919e-13
3.29511943e-13
4.37884188e-13
5.46869294e-13
6.38341459e-13
7.0054089e-13
7.33463325e-13
7.55377797e-13
8.04440009e-13
9.26810632e-13
1.15496003e-12
1.49000287e-12
1.89959224e-12
2.33262323e-12
2.74500492e-12
3.12338637e-12
3.49197309e-12
3.89373331e-12
4.36081695e-12
4.89389883e-12
5.45793706e-12
6.00442482e-12
6.51023005e-12
7.02942942e-12
7.72609454e-12
8.85391801e-12
1.06745357e-11
1.33363651e-11
1.68055395e-11
2.0832352e-11
2.50393888e-11
2.90083799e-11
3.24013686e-11
3.5051362e-11
3.70666024e-11
3.88959722e-11
4.13206024e-11
4.5344518e-11
5.19707866e-11
6.19345191e-11
7.54708616e-11
9.22201996e-11
1.11303783e-10
1.31515239e-10
1.51590573e-10
1.70461188e-10
1.87461986e-10
2.02473325e-10
2.16001124e-10
2.29201395e-10
2.43836327e-10
2.62128064e-10
2.86539636e-10
3.19425249e-10
3.62785364e-10
4.1811977e-10
4.86416788e-10
5.68136279e-10
6.63481373e-10
7.72438275e-10
8.94868873e-10
1.03081354e-09
1.18033625e-09
1.34362285e-09
1.52141951e-09
1.71552003e-09
1.92919283e-09
2.16731237e-09
2.43648953e-09
2.74596994e-09
3.10856832e-09
3.54112548e-09
4.06432029e-09
4.70417829e-09
5.49473373e-09
6.48408224e-09
7.74432881e-09
9.39085455e-09
1.15850523e-08
1.45150015e-08
1.83358537e-08
2.31233408e-08
2.88498991e-08
3.53970441e-08
4.25886302e-08
5.02613142e-08
5.83000069e-08
6.66434259e-08
7.53689418e-08
8.46187955e-08
9.46253067e-08
1.05478897e-07
1.1779943e-07
1.31123173e-07
1.41316199e-07
1.39084686e-07
1.15058957e-07
8.23651781e-08
5.65789744e-08
3.92204367e-08
2.74641717e-08
1.93935086e-08
1.37902099e-08
9.8638114e-09
7.09128112e-09
5.12079826e-09
3.71250684e-09
2.70109934e-09
1.97166787e-09
1.44357937e-09
1.05992588e-09
7.80358511e-10
5.76334915e-10
4.27590217e-10
3.18257306e-10
2.37430678e-10
1.77440544e-10
1.32795246e-10
9.95038353e-11
7.46463818e-11
5.60717347e-11
4.21791455e-11
3.17771036e-11
2.39788848e-11
1.81246521e-11
1.37235266e-11
1.0410589e-11
7.91155534e-12
6.02131515e-12
4.59064139e-12
3.5059708e-12
2.68218627e-12
2.05545761e-12
1.57783119e-12
1.2132118e-12
9.34385123e-13
7.20810954e-13
5.56960587e-13
4.31053821e-13
3.34132736e-13
2.59396336e-13
2.01688732e-13
1.57076697e-13
1.22512997e-13
9.56862034e-14
7.48252991e-14
5.8609864e-14
4.59853869e-14
3.61159333e-14
2.83703441e-14
2.22962087e-14
1.75482721e-14
1.38181294e-14
1.08817885e-14
8.55371766e-15
6.72498961e-15
5.29000676e-15
4.16004392e-15
3.27027365e-15
2.56473394e-15
2.01657515e-15
1.58668004e-15
1.24730305e-15
9.78433533e-16
7.65116084e-16
5.98289073e-16
4.66799265e-16
3.63303383e-16
2.81556052e-16
2.17321514e-16
1.66845648e-16
1.27761292e-16
9.80508001e-17
7.50539653e-17
5.7431771e-17
4.40174017e-17
3.37685936e-17
2.59184824e-17
1.98913232e-17
1.52555796e-17
1.16778271e-17
8.90934821e-18
6.77194738e-18
5.1326743e-18
3.88622461e-18
2.94668642e-18
2.24342193e-18
1.71888247e-18
1.32724818e-18
1.03241511e-18
8.05722535e-19
6.3882349e-19
5.1134748e-19
4.12277593e-19
3.34221586e-19
2.71950639e-19
2.21709405e-19
1.80780986e-19
1.47184943e-19
1.1946475e-19
9.65377284e-20
7.75877469e-20
6.19873721e-20
4.92402102e-20
3.8937713e-20
3.07267037e-20
2.42858244e-20
1.93061579e-20
1.54608047e-20
1.26662543e-20
1.05582435e-20
8.96258844e-21
7.73589819e-21
6.76842583e-21
5.97982171e-21
5.31361907e-21
4.73186655e-21
4.21053312e-21
3.73598828e-21
3.30294576e-21
2.91471092e-21
2.58797081e-21
2.36743603e-21
3.72752226e-18
2.63571591e-18
1.40931966e-18
7.29836796e-18
1.12087819e-15
1.24938693e-13
2.04692451e-13
2.0565539e-13
1.63990894e-13
1.14475314e-13
7.38984707e-14
7.84068932e-14
9.80860277e-14
1.05406759e-13
9.57681694e-14
7.66128227e-14
5.58101973e-14
3.82915094e-14
3.63246019e-14
5.32381667e-14
7.45123646e-14
8.64483508e-14
8.53931601e-14
7.4707203e-14
5.97612591e-14
4.51638355e-14
4.13810942e-14
7.45748301e-14
1.44738597e-13
2.24387821e-13
2.83941241e-13
3.08842038e-13
3.00212038e-13
2.68301848e-13
2.28454309e-13
2.17431071e-13
2.89024744e-13
4.60740486e-13
6.92829979e-13
9.16046611e-13
1.07225656e-12
1.13400033e-12
1.10621798e-12
1.01796462e-12
9.37383314e-13
9.82404527e-13
1.2571174e-12
1.76566136e-12
2.40091061e-12
3.00552155e-12
3.44535396e-12
3.65232799e-12
3.63401906e-12
3.48077729e-12
3.38552581e-12
3.60522736e-12
4.33227552e-12
5.57164461e-12
7.1264676e-12
8.69508512e-12
1.00149322e-11
1.09876654e-11
1.17238561e-11
1.24619901e-11
1.34028647e-11
1.45875814e-11
1.58863892e-11
1.70779225e-11
1.79916968e-11
1.86604225e-11
1.94499976e-11
2.10480813e-11
2.42311115e-11
2.95005556e-11
3.67792394e-11
4.53996073e-11
5.42845759e-11
6.23226173e-11
6.86428813e-11
7.28281117e-11
7.50318658e-11
7.60835725e-11
7.74963699e-11
8.12772406e-11
8.94978608e-11
1.03727345e-10
1.24527213e-10
1.51224414e-10
1.8204768e-10
2.14571043e-10
2.46277262e-10
2.75079706e-10
2.99679149e-10
3.19756265e-10
3.36024809e-10
3.50198082e-10
3.64892273e-10
3.8342286e-10
4.09455644e-10
4.46570965e-10
4.97699038e-10
5.64862487e-10
6.49183745e-10
7.51024671e-10
8.70089194e-10
1.00586925e-09
1.15777918e-09
1.32528769e-09
1.50817982e-09
1.70639782e-09
1.9200556e-09
2.15019795e-09
2.3996265e-09
2.67324214e-09
2.97801537e-09
3.32301968e-09
3.72103523e-09
4.18965347e-09
4.75134828e-09
5.43209947e-09
6.26436833e-09
7.2894712e-09
8.56449702e-09
1.01710733e-08
1.22384455e-08
1.49335454e-08
1.84352049e-08
2.28611938e-08
2.82460189e-08
3.45306099e-08
4.15787317e-08
4.92045192e-08
5.72571394e-08
6.56349185e-08
7.42683962e-08
8.3267418e-08
9.27384138e-08
1.02834716e-07
1.13703645e-07
1.25808339e-07
1.37029597e-07
1.42101442e-07
1.32262365e-07
1.04475441e-07
7.45401263e-08
5.20754681e-08
3.65863905e-08
2.58640277e-08
1.83922708e-08
1.31492149e-08
9.44598868e-09
6.81494649e-09
4.93583493e-09
3.58743815e-09
2.615785e-09
1.91306078e-09
1.40306536e-09
1.03174808e-09
7.60651476e-10
5.62398741e-10
4.1766415e-10
3.11170815e-10
2.32354839e-10
1.73794915e-10
1.3017296e-10
9.76170692e-11
7.32864647e-11
5.50893221e-11
4.14679385e-11
3.12611485e-11
2.36037673e-11
1.78513221e-11
1.35239464e-11
1.02648888e-11
7.80422234e-12
5.94232679e-12
4.53243725e-12
3.46297575e-12
2.65035239e-12
2.03183309e-12
1.5602585e-12
1.20011223e-12
9.24600604e-13
7.13486317e-13
5.51461757e-13
4.26914639e-13
3.31013236e-13
2.57043825e-13
1.99908085e-13
1.55720572e-13
1.21482344e-13
9.49011343e-14
7.42302669e-14
5.81525851e-14
4.56296395e-14
3.5841835e-14
2.81659112e-14
2.21425667e-14
1.74286428e-14
1.37232327e-14
1.08105038e-14
8.50370361e-15
6.68852861e-15
5.26135134e-15
4.13733088e-15
3.25397872e-15
2.55394005e-15
2.00906647e-15
1.58065052e-15
1.24242631e-15
9.75207486e-16
7.63240663e-16
5.97135706e-16
4.65957153e-16
3.62747914e-16
2.81370429e-16
2.17405312e-16
1.6723523e-16
1.28178237e-16
9.8266381e-17
7.52552158e-17
5.76199957e-17
4.41737045e-17
3.38927969e-17
2.60188726e-17
1.99733056e-17
1.53207312e-17
1.17281856e-17
8.94855527e-18
6.80326031e-18
5.15815544e-18
3.90709346e-18
2.9637688e-18
2.25734816e-18
1.73015098e-18
1.33628792e-18
1.03964218e-18
8.10675763e-19
6.43205201e-19
5.14829316e-19
4.14951726e-19
3.36251992e-19
2.73484668e-19
2.22866847e-19
1.81656402e-19
1.47851525e-19
1.19978184e-19
9.69396194e-20
7.7908624e-20
6.22491582e-20
4.94582468e-20
3.9122406e-20
3.08849122e-20
2.44221258e-20
1.94249432e-20
1.5585246e-20
1.27555605e-20
1.06290737e-20
9.0192385e-21
7.78071419e-21
6.80328581e-21
6.00639716e-21
5.33341312e-21
4.74620945e-21
4.22057668e-21
3.74270845e-21
3.30715786e-21
2.91709356e-21
2.58909897e-21
2.36780836e-21
3.98642837e-16
1.35808474e-16
4.32807156e-17
5.00031158e-16
8.15333657e-14
9.81690106e-12
1.12430666e-11
8.13734369e-12
4.78074828e-12
2.49799586e-12
1.2402173e-12
2.29779396e-12
2.98935892e-12
2.71037539e-12
1.97495554e-12
1.25442306e-12
7.26724541e-13
4.06613997e-13
6.09463894e-13
1.1709294e-12
1.52099988e-12
1.48782291e-12
1.21194458e-12
8.73032657e-13
5.78048371e-13
3.71026916e-13
4.38341526e-13
1.2322836e-12
2.36225014e-12
3.19087335e-12
3.43449121e-12
3.1746748e-12
2.63730391e-12
2.03171724e-12
1.54090879e-12
1.63397142e-12
2.80742441e-12
4.78008086e-12
6.72754975e-12
7.95062272e-12
8.21174877e-12
7.65600012e-12
6.61108463e-12
5.46257476e-12
4.84301932e-12
5.6605581e-12
8.25367746e-12
1.19144512e-11
1.53984112e-11
1.76885405e-11
1.83755873e-11
1.76145371e-11
1.5924011e-11
1.41447823e-11
1.35304761e-11
1.52854113e-11
1.96949037e-11
2.58076886e-11
3.19762949e-11
3.67184612e-11
3.93688888e-11
4.03216433e-11
4.07749994e-11
4.19402502e-11
4.42904388e-11
4.73821023e-11
5.02620012e-11
5.20511221e-11
5.24684364e-11
5.2217629e-11
5.31368511e-11
5.76982073e-11
6.78161301e-11
8.37051924e-11
1.03531663e-10
1.24156873e-10
1.4226653e-10
1.5542498e-10
1.62536945e-10
1.63938537e-10
1.61343678e-10
1.5787909e-10
1.57797914e-10
1.65703424e-10
1.85317954e-10
2.18265042e-10
2.63401944e-10
3.17056675e-10
3.74007842e-10
4.2881224e-10
4.77003667e-10
5.1584366e-10
5.44590384e-10
5.64431446e-10
5.78250311e-10
5.90349773e-10
6.06121561e-10
6.31547003e-10
6.72454462e-10
7.33806064e-10
8.18735841e-10
9.28553021e-10
1.06320876e-09
1.22170521e-09
1.40234752e-09
1.60340035e-09
1.82348252e-09
2.06154652e-09
2.3171461e-09
2.5901092e-09
2.88048121e-09
3.19004626e-09
3.52358527e-09
3.88890653e-09
4.29645549e-09
4.75916575e-09
5.29573171e-09
5.93159505e-09
6.69782213e-09
7.62750232e-09
8.76226351e-09
1.01526148e-08
1.18662158e-08
1.39924925e-08
1.66765967e-08
2.00841619e-08
2.43752374e-08
2.96067153e-08
3.57621232e-08
4.27496121e-08
5.04182072e-08
5.85669999e-08
6.7068637e-08
7.58363752e-08
8.47677527e-08
9.40294442e-08
1.03612231e-07
1.13907203e-07
1.24424133e-07
1.34904052e-07
1.41779836e-07
1.38555339e-07
1.2015407e-07
9.14667227e-08
6.58824864e-08
4.69474917e-08
3.34736076e-08
2.3926975e-08
1.71603969e-08
1.23514648e-08
8.92154291e-09
6.46581058e-09
4.70091601e-09
3.42790412e-09
2.5066156e-09
1.83783918e-09
1.35091442e-09
9.95390452e-10
7.35176328e-10
5.44421844e-10
4.04828005e-10
3.01992022e-10
2.25768481e-10
1.6905702e-10
1.26759394e-10
9.51561965e-11
7.15107306e-11
5.38051212e-11
4.05373198e-11
3.05853873e-11
2.31120339e-11
1.74927209e-11
1.32618844e-11
1.00735378e-11
7.66288356e-12
5.83840822e-12
4.45581168e-12
3.40634041e-12
2.60839694e-12
2.00068145e-12
1.53707449e-12
1.18282066e-12
9.11680828e-13
7.03813495e-13
5.44197121e-13
4.21441196e-13
3.26886461e-13
2.53935201e-13
1.97557777e-13
1.53927084e-13
1.20110738e-13
9.38623487e-14
7.34477934e-14
5.75521465e-14
4.51580122e-14
3.54756378e-14
2.78959332e-14
2.19435824e-14
1.72727519e-14
1.35971624e-14
1.0714346e-14
8.43853877e-15
6.64255293e-15
5.22446236e-15
4.10691217e-15
3.231722e-15
2.54028394e-15
1.99993114e-15
1.57296304e-15
1.23586314e-15
9.70835581e-16
7.60998923e-16
5.9581143e-16
4.64900079e-16
3.61973224e-16
2.81115906e-16
2.17570117e-16
1.67622895e-16
1.28557627e-16
9.85383659e-17
7.55278256e-17
5.78825389e-17
4.4387111e-17
3.40571515e-17
2.6149979e-17
2.00809412e-17
1.54061308e-17
1.17932295e-17
8.99848581e-18
6.84297803e-18
5.19053924e-18
3.93369136e-18
2.98562216e-18
2.2752548e-18
1.74471871e-18
1.34802828e-18
1.04908167e-18
8.17018801e-19
6.49022208e-19
5.19418482e-19
4.18470386e-19
3.38924932e-19
2.75505878e-19
2.24393208e-19
1.82811799e-19
1.48731944e-19
1.20656718e-19
9.74709542e-20
7.83329208e-20
6.25952918e-20
4.97464543e-20
3.93664521e-20
3.10939008e-20
2.46021227e-20
1.95812774e-20
1.57319224e-20
1.28714952e-20
1.07224108e-20
9.09415428e-21
7.84006775e-21
6.84950248e-21
6.04166643e-21
5.35970956e-21
4.76528624e-21
4.23395456e-21
3.75167589e-21
3.3127915e-21
2.92029091e-21
2.59062297e-21
2.36834063e-21
4.13229349e-14
6.01740417e-15
1.1580315e-15
3.15515182e-14
4.56372467e-12
5.85504603e-10
4.26749497e-10
2.08299197e-10
8.56204549e-11
3.20604504e-11
1.2090687e-11
5.71137752e-11
6.12290869e-11
4.22008615e-11
2.33238653e-11
1.13264376e-11
5.07076906e-12
2.35802552e-12
8.66052174e-12
1.71005876e-11
1.83079184e-11
1.43435002e-11
9.37786842e-12
5.47783006e-12
2.97971208e-12
1.68017867e-12
3.63223287e-12
1.32402138e-11
2.23133694e-11
2.53323798e-11
2.29359294e-11
1.80083851e-11
1.2861273e-11
8.64197578e-12
6.11508822e-12
8.73545046e-12
1.86158607e-11
3.06273325e-11
3.86081816e-11
4.02241062e-11
3.66584746e-11
3.034946e-11
2.34905276e-11
1.78534564e-11
1.64904812e-11
2.33053262e-11
3.72150269e-11
5.21714919e-11
6.23056222e-11
6.51728961e-11
6.15714134e-11
5.39129753e-11
4.4995485e-11
3.81947787e-11
3.80034049e-11
4.73434139e-11
6.43789619e-11
8.33424396e-11
9.82154753e-11
1.05676484e-10
1.06071103e-10
1.02849002e-10
1.0069726e-10
1.02538966e-10
1.07983521e-10
1.14235142e-10
1.18196942e-10
1.18130028e-10
1.1453777e-10
1.10587757e-10
1.11812051e-10
1.23951855e-10
1.49556495e-10
1.86043246e-10
2.26584037e-10
2.63211488e-10
2.89704649e-10
3.03114619e-10
3.03734557e-10
2.94457612e-10
2.80310867e-10
2.68459168e-10
2.67242178e-10
2.84316543e-10
3.24254238e-10
3.86743176e-10
4.66412895e-10
5.54368574e-10
6.40634281e-10
7.16588048e-10
7.76606637e-10
8.18610844e-10
8.43851961e-10
8.56289845e-10
8.61981515e-10
8.68552461e-10
8.8459383e-10
9.18817868e-10
9.78906653e-10
1.07049115e-09
1.19586176e-09
1.35466765e-09
1.54509815e-09
1.764502e-09
2.00960849e-09
2.27748433e-09
2.56608072e-09
2.87397133e-09
3.20069512e-09
3.54605588e-09
3.91007117e-09
4.29567255e-09
4.71017451e-09
5.16465679e-09
5.67318476e-09
6.25239436e-09
6.92759715e-09
7.73225111e-09
8.70555721e-09
9.88579809e-09
1.132255e-08
1.30720591e-08
1.52077652e-08
1.78176239e-08
2.10586788e-08
2.50857178e-08
3.00401759e-08
3.59157582e-08
4.26632107e-08
5.01744871e-08
5.82940776e-08
6.68025842e-08
7.5601942e-08
8.46121869e-08
9.36682135e-08
1.02997453e-07
1.12649368e-07
1.22692816e-07
1.32351773e-07
1.40532688e-07
1.42397357e-07
1.31912454e-07
1.09345433e-07
8.26182001e-08
6.02058001e-08
4.3422706e-08
3.12568833e-08
2.251246e-08
1.62445154e-08
1.17504332e-08
8.52240803e-09
6.19797695e-09
4.51954096e-09
3.30407144e-09
2.421522e-09
1.77898125e-09
1.30996512e-09
9.6675978e-10
7.15066632e-10
5.302208e-10
3.94682742e-10
2.94724862e-10
2.20542851e-10
1.65290705e-10
1.24040697e-10
9.31922011e-11
7.00910855e-11
5.2776987e-11
3.97913086e-11
3.00430273e-11
2.27169291e-11
1.72042792e-11
1.30508619e-11
9.91948764e-12
7.54898181e-12
5.754524e-12
4.39390613e-12
3.36055083e-12
2.57445208e-12
1.97546187e-12
1.51829556e-12
1.16880659e-12
9.01201471e-13
6.95962222e-13
5.38301178e-13
4.17001542e-13
3.23536442e-13
2.5140533e-13
1.95644362e-13
1.52473454e-13
1.19002178e-13
9.30175671e-14
7.28057158e-14
5.70619162e-14
4.47802798e-14
3.51832944e-14
2.76741282e-14
2.17763499e-14
1.71450456e-14
1.34989036e-14
1.06391746e-14
8.38385165e-15
6.60219019e-15
5.19415047e-15
4.08400117e-15
3.21461207e-15
2.52843121e-15
1.99146993e-15
1.56670032e-15
1.23115953e-15
9.67528858e-16
7.58915925e-16
5.94473175e-16
4.64074693e-16
3.61505465e-16
2.80946689e-16
2.17617238e-16
1.67815441e-16
1.28809528e-16
9.87730008e-17
7.57483078e-17
5.80795621e-17
4.45493851e-17
3.41879453e-17
2.6254948e-17
2.01642306e-17
1.54708074e-17
1.18428413e-17
9.03706252e-18
6.87375236e-18
5.21563522e-18
3.9544377e-18
3.00283708e-18
2.28947694e-18
1.75635164e-18
1.3574398e-18
1.05670748e-18
8.21925981e-19
6.53816665e-19
5.2314132e-19
4.21316137e-19
3.41085782e-19
2.77139744e-19
2.25627061e-19
1.83745931e-19
1.49444063e-19
1.21205926e-19
9.79014245e-20
7.86770733e-20
6.28764137e-20
4.99808488e-20
3.95651748e-20
3.12642397e-20
2.47489048e-20
1.97084662e-20
1.58455921e-20
1.29647436e-20
1.07981716e-20
9.15506382e-21
7.88830951e-21
6.8870312e-21
6.0702695e-21
5.38100288e-21
4.78070168e-21
4.24473345e-21
3.7588717e-21
3.3172843e-21
2.92281188e-21
2.59179334e-21
2.36871965e-21
2.70784338e-21
3.01655779e-21
2.68646389e-21
2.26474591e-21
1.8840362e-21
1.56639228e-21
1.30772586e-21
1.09881863e-21
9.30345073e-22
7.94469704e-22
6.84698683e-22
5.96014617e-22
5.24202114e-22
4.65556649e-22
4.17313897e-22
3.77498674e-22
3.44497141e-22
3.16875952e-22
2.93600933e-22
2.73928306e-22
2.57212126e-22
2.428927e-22
2.30569496e-22
2.19940704e-22
2.10730964e-22
2.02703345e-22
1.9568411e-22
1.89528361e-22
1.84120534e-22
1.7936202e-22
1.75165598e-22
1.71455835e-22
1.68173546e-22
1.64713801e-22
1.41207309e-22
1.28044585e-22
4.43976944e-21
3.29430806e-19
2.61586528e-17
2.25869197e-15
1.30354911e-21
1.91586779e-21
2.07277161e-21
2.02829259e-21
1.89940016e-21
1.73964581e-21
1.56959867e-21
1.40024655e-21
1.23833323e-21
1.08982753e-21
9.57801358e-22
8.42577074e-22
7.43273822e-22
6.58429489e-22
5.86255682e-22
5.25012231e-22
4.73125618e-22
4.29069581e-22
3.91535295e-22
3.5949938e-22
3.3210874e-22
3.08577282e-22
2.88274279e-22
2.70720593e-22
2.55510585e-22
2.42269518e-22
2.30705447e-22
2.2057859e-22
2.11690189e-22
2.03878526e-22
1.9700368e-22
1.90935111e-22
1.85580442e-22
1.80738202e-22
1.71280911e-22
1.09359102e-22
7.2251186e-22
4.58161669e-20
3.11576002e-18
2.00278544e-16
6.44515434e-22
1.12314704e-21
1.38625633e-21
1.50475803e-21
1.53352936e-21
1.50922148e-21
1.45293185e-21
1.37604726e-21
1.28618053e-21
1.18995042e-21
1.09245024e-21
9.9711632e-22
9.0639449e-22
8.22023152e-22
7.44839365e-22
6.75030914e-22
6.12476865e-22
5.5686611e-22
5.07654664e-22
4.64226322e-22
4.26025672e-22
3.92499874e-22
3.63073483e-22
3.37236946e-22
3.14569593e-22
2.94678822e-22
2.77211743e-22
2.61846822e-22
2.48304785e-22
2.36356623e-22
2.25818764e-22
2.16515666e-22
2.08295935e-22
2.0101549e-22
1.93855305e-22
1.69127656e-22
2.12497711e-22
5.79802481e-21
3.23372108e-19
1.59503678e-17
4.85745688e-22
8.5273134e-22
1.10158638e-21
1.24877053e-21
1.32110909e-21
1.34117068e-21
1.32582531e-21
1.28655837e-21
1.23127059e-21
1.1656719e-21
1.09407357e-21
1.01970504e-21
9.45022515e-22
8.71979997e-22
8.02002663e-22
7.36000618e-22
6.74546436e-22
6.17977189e-22
5.66370074e-22
5.19610041e-22
4.77500247e-22
4.39774922e-22
4.06100086e-22
3.76123179e-22
3.49497708e-22