/*--------------------------------*- C++ -*----------------------------------*\
  =========                 |
  \\      /  F ield         | OpenFOAM: The Open Source CFD Toolbox
   \\    /   O peration     | Website:  https://openfoam.org
    \\  /    A nd           | Version:  6
     \\/     M anipulation  |
\*---------------------------------------------------------------------------*/
FoamFile
{
    version     2.0;
    format      ascii;
    class       volScalarField;
    location    "25000";
    object      C2H;
}
// * * * * * * * * * * * * * * * * * * * * * * * * * * * * * * * * * * * * * //

dimensions      [0 0 0 0 0 0 0];

internalField   nonuniform List<scalar> 
44870
(
1.22405587e-114
2.20235741e-112
3.95001824e-110
7.13284299e-108
1.29802736e-105
2.3832004e-103
4.42034095e-101
8.29507675e-99
1.57749272e-96
3.04510295e-94
5.97692223e-92
1.19471191e-89
2.43594485e-87
5.0728521e-85
1.08051504e-82
2.35619531e-80
5.26615197e-78
1.20705601e-75
2.83982371e-73
6.85937445e-71
1.7020585e-68
4.33824354e-66
1.13628452e-63
3.05705386e-61
8.45010231e-59
2.39786739e-56
6.98505844e-54
2.08633432e-51
6.3865066e-49
2.00004522e-46
6.40040604e-44
2.08698449e-41
6.91600631e-39
2.31718021e-36
7.80280585e-34
2.6124084e-31
8.56776566e-29
2.67867458e-26
7.57738909e-24
1.76583571e-21
4.05169209e-115
6.82219788e-113
1.13838683e-110
1.90518317e-108
3.20472131e-106
5.43286758e-104
9.30537231e-102
1.6152084e-99
2.84861518e-97
5.11939176e-95
9.39887502e-93
1.76774146e-90
3.41421418e-88
6.79032686e-86
1.39398278e-83
2.96211646e-81
6.53255728e-79
1.49929413e-76
3.59132127e-74
9.00019872e-72
2.36593063e-69
6.5340545e-67
1.89872052e-64
5.80536724e-62
1.8675637e-59
6.31052118e-57
2.23673623e-54
8.29346814e-52
3.21071698e-49
1.29377714e-46
5.41507349e-44
2.34569877e-41
1.04870224e-38
4.81236244e-36
2.25410121e-33
1.06642331e-30
5.02731751e-28
2.30807729e-25
9.83790667e-23
3.67081784e-20
5.84535838e-116
8.6591311e-114
1.25950794e-111
1.83447052e-109
2.69046893e-107
3.99531052e-105
6.0229513e-103
9.26880154e-101
1.45657597e-98
2.34969967e-96
3.89137393e-94
6.65013859e-92
1.1717983e-89
2.14252374e-87
4.05338327e-85
8.00459833e-83
1.64421896e-80
3.542763e-78
7.98452525e-76
1.89783012e-73
4.74565359e-71
1.26028811e-68
3.5554614e-66
1.08449189e-63
3.63132887e-61
1.39251722e-58
6.33006642e-56
3.50300885e-53
2.29176317e-50
1.69569454e-47
1.34363126e-44
1.10904595e-41
9.26140585e-39
7.76750282e-36
6.41125757e-33
5.20446511e-30
4.05826383e-27
3.03956513e-24
2.07205413e-21
1.27967391e-18
3.54534593e-117
4.02431554e-115
4.6392137e-113
5.49307617e-111
6.68602467e-109
8.37250752e-107
1.07757041e-104
1.43333319e-102
1.96506375e-100
2.79676098e-98
4.11989987e-96
6.33366895e-94
1.01120315e-91
1.69516167e-89
2.95850013e-87
5.45363703e-85
1.05273193e-82
2.15877052e-80
4.69952331e-78
1.12386366e-75
3.18013733e-73
1.27242459e-70
7.98678649e-68
6.90692649e-65
6.8604475e-62
7.204423e-59
7.74741475e-56
8.45936373e-53
9.28176187e-50
1.0217006e-46
1.11492477e-43
1.2056468e-40
1.27472829e-37
1.31878823e-34
1.31655663e-31
1.2697045e-28
1.16399852e-25
1.0129941e-22
8.09486285e-20
5.82350091e-17
3.58793731e-119
3.62915337e-117
3.77257912e-115
4.08466505e-113
4.61435188e-111
5.42732797e-109
6.63667177e-107
8.46249935e-105
1.12208325e-102
1.55484416e-100
2.24584665e-98
3.40284638e-96
5.40294702e-94
9.19065502e-92
1.79294504e-89
5.20096951e-87
2.89503209e-84
2.46378929e-81
2.3817973e-78
2.36528468e-75
2.35954473e-72
2.35306864e-69
2.3444869e-66
2.33332969e-63
2.32031383e-60
2.30572849e-57
2.28988582e-54
2.27292998e-51
2.25571785e-48
2.23759401e-45
2.21983633e-42
2.2015118e-39
2.18382418e-36
2.16561279e-33
2.14845261e-30
2.131372e-27
2.11503851e-24
2.09916405e-21
2.08373944e-18
2.08192173e-15
1.45178032e-19
3.12326417e-19
4.21137749e-19
4.64640565e-19
4.59951866e-19
6.73083934e-19
1.39698013e-18
2.63065752e-18
4.08013523e-18
5.40492376e-18
6.33424969e-18
6.87317297e-18
7.24774023e-18
7.78178749e-18
8.63634722e-18
9.76023783e-18
1.09643381e-17
1.19838605e-17
1.26982684e-17
1.31750947e-17
1.38272312e-17
1.51861588e-17
1.77241304e-17
2.16951553e-17
2.70828275e-17
3.36801962e-17
4.10543713e-17
4.94150526e-17
5.93475434e-17
7.34789991e-17
9.52662955e-17
1.29458478e-16
1.81366351e-16
2.54962226e-16
3.54898739e-16
4.82166727e-16
6.41774928e-16
8.39478257e-16
1.09434098e-15
1.4347351e-15
1.90614104e-15
2.56315242e-15
3.4675231e-15
4.67775782e-15
6.25637681e-15
8.25407769e-15
1.0747846e-14
1.38780431e-14
1.78923442e-14
2.3176472e-14
3.02508072e-14
3.97487542e-14
5.23588803e-14
6.87956188e-14
8.97767923e-14
1.16144698e-13
1.49065794e-13
1.90380068e-13
2.42878012e-13
3.10457965e-13
3.98011286e-13
5.11092703e-13
6.55684583e-13
8.38048135e-13
1.06537258e-12
1.34585717e-12
1.69000701e-12
2.10980225e-12
2.61947521e-12
3.23351823e-12
3.96807209e-12
4.84198592e-12
5.8800763e-12
7.12325214e-12
8.62352414e-12
1.04651439e-11
1.27296744e-11
1.55215307e-11
1.89361073e-11
2.30611973e-11
2.79667018e-11
3.37105802e-11
4.03596141e-11
4.80065256e-11
5.68073991e-11
6.69993815e-11
7.89490492e-11
9.31048987e-11
1.10014351e-10
1.30286766e-10
1.54542732e-10
1.83421208e-10
2.17533476e-10
2.57505712e-10
3.04020793e-10
3.57887539e-10
4.20121289e-10
4.92060645e-10
5.75475217e-10
6.72721818e-10
7.86818627e-10
9.21493086e-10
1.08129462e-09
1.27180818e-09
1.49965378e-09
1.77304957e-09
2.10211464e-09
2.49912569e-09
2.98019449e-09
3.56580871e-09
4.28321217e-09
5.16846427e-09
6.26995935e-09
7.65470378e-09
9.41620424e-09
1.1686676e-08
1.46567118e-08
1.86061008e-08
2.3952012e-08
3.13225841e-08
4.16669253e-08
5.63891644e-08
7.74373926e-08
1.07176863e-07
1.47815808e-07
2.00384392e-07
2.63760812e-07
3.34472658e-07
4.07543974e-07
4.77831795e-07
5.41078533e-07
5.94367904e-07
6.36200606e-07
6.66139733e-07
6.84278804e-07
6.91027105e-07
6.8651599e-07
6.70501706e-07
6.42089148e-07
5.9850303e-07
5.41939194e-07
4.69000489e-07
3.77585668e-07
2.77197252e-07
1.91130537e-07
1.30704167e-07
9.04793145e-08
6.33527875e-08
4.47811373e-08
3.20423928e-08
2.35198102e-08
1.75275219e-08
1.31337699e-08
9.79720182e-09
7.2411265e-09
5.33764139e-09
3.94093732e-09
2.92027828e-09
2.17362212e-09
1.6254432e-09
1.22112579e-09
9.21477666e-10
6.98388948e-10
5.31565746e-10
4.06146876e-10
3.10994129e-10
2.38276018e-10
1.82603963e-10
1.3993087e-10
1.07203728e-10
8.21042857e-11
6.28620784e-11
4.81197633e-11
3.68348249e-11
2.81993683e-11
2.15902288e-11
1.65364078e-11
1.26735111e-11
9.72092205e-12
7.46364447e-12
5.73730206e-12
4.41670183e-12
3.40541646e-12
2.62984784e-12
2.0341924e-12
1.57602895e-12
1.22305798e-12
9.50723478e-13
7.40383416e-13
5.77794775e-13
4.51798123e-13
3.53976447e-13
2.77827932e-13
2.185521e-13
1.72304738e-13
1.36075402e-13
1.07582107e-13
8.51858698e-14
6.76123637e-14
5.37564237e-14
4.28092305e-14
3.41073721e-14
2.72493241e-14
2.18385261e-14
1.75572974e-14
1.41699835e-14
1.14747676e-14
9.36454502e-15
7.69476916e-15
6.36392961e-15
5.29673353e-15
4.43862085e-15
3.75328025e-15
3.19998109e-15
2.7509211e-15
2.382602e-15
2.07939162e-15
1.82644059e-15
1.61632921e-15
1.44331577e-15
1.29520647e-15
1.16807026e-15
1.05803466e-15
9.61315323e-16
8.75224758e-16
7.9783734e-16
7.2775762e-16
6.63878174e-16
6.05329271e-16
5.51537081e-16
5.0212467e-16
4.56796573e-16
4.15290931e-16
3.77355187e-16
3.42729111e-16
3.11143416e-16
2.82331579e-16
2.56001196e-16
2.31922438e-16
2.09993879e-16
1.90010424e-16
1.71782319e-16
1.55147794e-16
1.3996882e-16
1.26123925e-16
1.13503343e-16
1.02006619e-16
9.15418704e-17
8.20260746e-17
7.33857581e-17
6.55575464e-17
5.84878889e-17
5.21311717e-17
4.64457236e-17
4.1386817e-17
3.6887054e-17
3.29721043e-17
2.95329078e-17
2.65108579e-17
2.38518078e-17
2.15058721e-17
1.94287604e-17
1.75820712e-17
1.5933217e-17
1.44554246e-17
1.31283498e-17
1.19404464e-17
1.0895389e-17
1.00289394e-17
9.45117241e-18
4.19395715e-18
6.62946928e-18
6.7654101e-18
5.8659956e-18
4.75211091e-18
1.26823216e-17
3.4141659e-17
6.20561368e-17
8.58079145e-17
9.95149082e-17
1.01916845e-16
9.93620046e-17
1.01414341e-16
1.14313031e-16
1.36347507e-16
1.60840861e-16
1.80890575e-16
1.91510387e-16
1.93491293e-16
1.94683046e-16
2.09257831e-16
2.48646253e-16
3.16641014e-16
4.1004602e-16
5.1850055e-16
6.3354001e-16
7.45098231e-16
8.62919112e-16
1.0172969e-15
1.26850989e-15
1.68194099e-15
2.31815483e-15
3.21091494e-15
4.36041041e-15
5.73789889e-15
7.29210116e-15
9.02537812e-15
1.10267701e-14
1.35410537e-14
1.68857897e-14
2.14303116e-14
2.74406847e-14
3.50743148e-14
4.42804636e-14
5.4957164e-14
6.69871191e-14
8.0627068e-14
9.6726615e-14
1.1675041e-13
1.42551381e-13
1.75977819e-13
2.18513123e-13
2.71013794e-13
3.33747998e-13
4.06766808e-13
4.90857922e-13
5.88625224e-13
7.0535027e-13
8.48864444e-13
1.02861418e-12
1.25408028e-12
1.53363268e-12
1.87435348e-12
2.28329312e-12
2.76931408e-12
3.34347551e-12
4.02052626e-12
4.81564672e-12
5.74447353e-12
6.82023007e-12
8.05807567e-12
9.48032799e-12
1.11251533e-11
1.3060805e-11
1.53751334e-11
1.8195146e-11
2.16320034e-11
2.58101619e-11
3.08233556e-11
3.67440308e-11
4.36128576e-11
5.14636956e-11
6.03567641e-11
7.04055595e-11
8.18252791e-11
9.49515338e-11
1.1027514e-10
1.28372038e-10
1.49898363e-10
1.75551346e-10
2.05990835e-10
2.41862211e-10
2.837832e-10
3.32388729e-10
3.88397996e-10
4.5269923e-10
5.26444707e-10
6.11181711e-10
7.08968035e-10
8.22543001e-10
9.55353375e-10
1.11161329e-09
1.29642953e-09
1.51602182e-09
1.77770598e-09
2.09057906e-09
2.46574712e-09
2.91671618e-09
3.46123387e-09
4.12186049e-09
4.92839551e-09
5.92025869e-09
7.15048485e-09
8.69202529e-09
1.06463026e-08
1.31561038e-08
1.6426318e-08
2.07559798e-08
2.65875613e-08
3.45803471e-08
4.57184866e-08
6.14347222e-08
8.36743453e-08
1.14729794e-07
1.56641098e-07
2.10201315e-07
2.74077089e-07
3.44692072e-07
4.17112202e-07
4.86331603e-07
5.4825775e-07
6.00104918e-07
6.40483193e-07
6.69011315e-07
6.85760651e-07
6.91133038e-07
6.85166037e-07
6.6754301e-07
6.373103e-07
5.92599657e-07
5.34669723e-07
4.60221548e-07
3.6804283e-07
2.69116296e-07
1.86000591e-07
1.27765226e-07
8.87549966e-08
6.22982539e-08
4.41165512e-08
3.1627154e-08
2.32449867e-08
1.73162544e-08
1.29725374e-08
9.67018872e-09
7.14916173e-09
5.27550917e-09
3.89969324e-09
2.89290921e-09
2.15528361e-09
1.61295331e-09
1.21245419e-09
9.15343262e-10
6.93977475e-10
5.28353653e-10
4.03804985e-10
3.09316742e-10
2.37066082e-10
1.8172366e-10
1.39285328e-10
1.0672746e-10
8.1751436e-11
6.25999903e-11
4.79248505e-11
3.66900406e-11
2.80917097e-11
2.15097533e-11
1.64764403e-11
1.26288568e-11
9.68766038e-12
7.43885392e-12
5.71880795e-12
4.40286202e-12
3.39504305e-12
2.62205688e-12
2.02833529e-12
1.57162529e-12
1.21973981e-12
9.48210886e-13
7.38479828e-13
5.76358219e-13
4.5070216e-13
3.53145135e-13
2.77182415e-13
2.18055264e-13
1.71932935e-13
1.35795833e-13
1.07362685e-13
8.50085369e-14
6.74789741e-14
5.36611069e-14
4.27403143e-14
3.40520462e-14
2.72038975e-14
2.18066852e-14
1.75369635e-14
1.41560569e-14
1.14625969e-14
9.35488108e-15
7.68886381e-15
6.36070662e-15
5.29460204e-15
4.43663271e-15
3.75195515e-15
3.19955862e-15
2.75104074e-15
2.38280128e-15
2.07951819e-15
1.82652435e-15
1.61640536e-15
1.44359317e-15
1.29532812e-15
1.16805526e-15
1.0579438e-15
9.61173811e-16
8.75024369e-16
7.97575831e-16
7.27450842e-16
6.63545233e-16
6.04979304e-16
5.51173002e-16
5.01751358e-16
4.56420418e-16
4.14916741e-16
3.76986017e-16
3.4236785e-16
3.10793396e-16
2.81996818e-16
2.55691462e-16
2.31625151e-16
2.09714234e-16
1.89750646e-16
1.71542586e-16
1.54927742e-16
1.3976783e-16
1.25941169e-16
1.13337824e-16
1.01857231e-16
9.14074662e-17
8.19055242e-17
7.32779772e-17
6.54615036e-17
5.84025941e-17
5.20556589e-17
4.63790511e-17
4.13281086e-17
3.68340187e-17
3.2927262e-17
2.94929459e-17
2.64754105e-17
2.38204134e-17
2.14780532e-17
1.94040733e-17
1.75601153e-17
1.59136339e-17
1.44378992e-17
1.31126141e-17
1.19262689e-17
1.0882556e-17
1.0017214e-17
9.44017467e-18
2.41137555e-16
2.65208961e-16
1.93586611e-16
1.24580221e-16
8.21360165e-17
7.97915682e-16
2.16253286e-15
3.33771681e-15
3.83533822e-15
3.69854777e-15
3.17627428e-15
2.80726637e-15
3.05167031e-15
3.85868729e-15
4.79402078e-15
5.44220394e-15
5.61179545e-15
5.32987656e-15
4.83356255e-15
4.66156225e-15
5.29112768e-15
6.80049107e-15
8.89750248e-15
1.11565445e-14
1.31969882e-14
1.48054464e-14
1.5944258e-14
1.71983713e-14
1.9705148e-14
2.4726436e-14
3.30207588e-14
4.4641386e-14
5.89021592e-14
7.4656014e-14
9.05713896e-14
1.05755789e-13
1.20888327e-13
1.38542027e-13
1.62532886e-13
1.9610155e-13
2.40991298e-13
2.96452891e-13
3.60099352e-13
4.28003603e-13
4.9716615e-13
5.66975809e-13
6.42198366e-13
7.32486127e-13
8.49241884e-13
1.00156627e-12
1.19331215e-12
1.42237283e-12
1.68179947e-12
1.96279398e-12
2.25966043e-12
2.57622119e-12
2.9295758e-12
3.34823571e-12
3.86430137e-12
4.50435852e-12
5.28284357e-12
6.20270772e-12
7.26171822e-12
8.46376794e-12
9.82238455e-12
1.13593668e-11
1.31015247e-11
1.50659661e-11
1.72605161e-11
1.96838391e-11
2.23457775e-11
2.52903353e-11
2.86184108e-11
3.25025181e-11
3.71467028e-11
4.27878468e-11
4.95899022e-11
5.76845681e-11
6.71132572e-11
7.7866307e-11
8.98895894e-11
1.03155424e-10
1.17727593e-10
1.33816558e-10
1.51838957e-10
1.72425539e-10
1.96393021e-10
2.24636524e-10
2.58040069e-10
2.97428047e-10
3.43509442e-10
3.96910476e-10
4.58219691e-10
5.28084121e-10
6.07322336e-10
6.9703824e-10
7.98746833e-10
9.14532532e-10
1.047182e-09
1.20037257e-09
1.37856567e-09
1.58712941e-09
1.83247828e-09
2.12230591e-09
2.46555596e-09
2.87335163e-09
3.35909927e-09
3.93924136e-09
4.63529217e-09
5.47469343e-09
6.49319723e-09
7.73829961e-09
9.27354646e-09
1.11856775e-08
1.35944352e-08
1.66667083e-08
2.06397829e-08
2.5855755e-08
3.28125822e-08
4.22352679e-08
5.51779788e-08
7.31214986e-08
9.7980141e-08
1.31856747e-07
1.76407607e-07
2.31922527e-07
2.96653039e-07
3.66841786e-07
4.37672794e-07
5.04449247e-07
5.63426069e-07
6.12080073e-07
6.49255056e-07
6.74679747e-07
6.88351484e-07
6.90670078e-07
6.81440107e-07
6.60193134e-07
6.25804428e-07
5.78954242e-07
5.18111087e-07
4.40419502e-07
3.4730305e-07
2.52287994e-07
1.75422839e-07
1.2165966e-07
8.51278965e-08
6.00611818e-08
4.26983404e-08
3.07425114e-08
2.2630686e-08
1.68406795e-08
1.261356e-08
9.39139942e-09
6.95383398e-09
5.14416507e-09
3.81247657e-09
2.83491577e-09
2.1163153e-09
1.58632269e-09
1.19389895e-09
9.02172865e-10
6.84478628e-10
5.21420332e-10
3.98731401e-10
3.05665788e-10
2.34430738e-10
1.7980469e-10
1.37877036e-10
1.05687814e-10
8.09808465e-11
6.20274207e-11
4.74989242e-11
3.63736449e-11
2.78564298e-11
2.13337247e-11
1.63453114e-11
1.25312057e-11
9.61491622e-12
7.38463044e-12
5.67834687e-12
4.37257707e-12
3.37234617e-12
2.60501884e-12
2.01552395e-12
1.56197894e-12
1.21246757e-12
9.42720731e-13
7.34331962e-13
5.73213953e-13
4.48337972e-13
3.51319533e-13
2.75787857e-13
2.16982824e-13
1.71110438e-13
1.35165784e-13
1.06882525e-13
8.46377579e-14
6.71943731e-14
5.34441668e-14
4.25795494e-14
3.39336148e-14
2.7113725e-14
2.1739332e-14
1.7488034e-14
1.41219561e-14
1.14380139e-14
9.33715773e-15
7.67629711e-15
6.35195021e-15
5.28910872e-15
4.43312898e-15
3.74991229e-15
3.19854241e-15
2.75074787e-15
2.38301745e-15
2.08000109e-15
1.82754923e-15
1.61777489e-15
1.44397352e-15
1.29552139e-15
1.16804312e-15
1.057736e-15
9.6080521e-16
8.74525149e-16
7.9697084e-16
7.26761135e-16
6.62792478e-16
6.04185079e-16
5.50353133e-16
5.00917847e-16
4.55583517e-16
4.14085181e-16
3.76167192e-16
3.41568683e-16
3.10020811e-16
2.81259283e-16
2.55010778e-16
2.30970964e-16
2.09099663e-16
1.89180166e-16
1.71016334e-16
1.54444814e-16
1.39326826e-16
1.25540239e-16
1.1297475e-16
1.01529568e-16
9.11126883e-17
8.16411372e-17
7.30415867e-17
6.52508318e-17
5.82154579e-17
5.18899362e-17
4.6232681e-17
4.11991922e-17
3.6726496e-17
3.28290693e-17
2.94051583e-17
2.63975667e-17
2.37514872e-17
2.14169904e-17
1.93498928e-17
1.75119322e-17
1.58706618e-17
1.43994505e-17
1.30780972e-17
1.18951719e-17
1.08544087e-17
9.99149779e-18
9.41607371e-18
2.0134976e-14
1.42855574e-14
7.46408812e-15
3.5429438e-15
2.28493681e-15
7.55972991e-14
1.68280013e-13
2.03789812e-13
1.84121356e-13
1.40602717e-13
9.67543358e-14
8.22944929e-14
1.05555025e-13
1.41158502e-13
1.62310222e-13
1.60381571e-13
1.40678941e-13
1.13198736e-13
8.98624468e-14
8.91355883e-14
1.15259169e-13
1.56320579e-13
1.96720635e-13
2.26131478e-13
2.41501244e-13
2.44032516e-13
2.39033079e-13
2.4539245e-13
2.86004033e-13
3.72239709e-13
4.98999215e-13
6.49970678e-13
8.04376835e-13
9.4339637e-13
1.05391681e-12
1.13670361e-12
1.21868256e-12
1.34336371e-12
1.54738802e-12
1.84114159e-12
2.20840347e-12
2.612875e-12
3.014995e-12
3.3782935e-12
3.69004576e-12
3.97474659e-12
4.30179234e-12
4.75496365e-12
5.39230912e-12
6.22281248e-12
7.20798823e-12
8.28028175e-12
9.36571068e-12
1.04085879e-11
1.14019215e-11
1.24123599e-11
1.35703929e-11
1.5021992e-11
1.68702062e-11
1.91411619e-11
2.17873232e-11
2.47286728e-11
2.79065376e-11
3.13248813e-11
3.50354218e-11
3.91029453e-11
4.35698471e-11
4.84158451e-11
5.35824522e-11
5.90069784e-11
6.47079441e-11
7.08580955e-11
7.78128337e-11
8.60699873e-11
9.61106059e-11
1.08335123e-10
1.22882152e-10
1.39725367e-10
1.58648622e-10
1.79368621e-10
2.01626097e-10
2.25307933e-10
2.50587894e-10
2.78033756e-10
3.08618568e-10
3.43663296e-10
3.84636337e-10
4.32930392e-10
4.89698914e-10
5.55807438e-10
6.3185569e-10
7.18304758e-10
8.15620545e-10
9.24472348e-10
1.04590939e-09
1.1815057e-09
1.33352541e-09
1.5051123e-09
1.70044946e-09
1.92490039e-09
2.18467603e-09
2.4871383e-09
2.84091207e-09
3.2561473e-09
3.74456184e-09
4.32054541e-09
5.00147116e-09
5.80886052e-09
6.77052363e-09
7.9221368e-09
9.30984493e-09
1.09944344e-08
1.30569253e-08
1.56070144e-08
1.87945025e-08
2.28249932e-08
2.79872398e-08
3.46899252e-08
4.35132346e-08
5.52712982e-08
7.11014746e-08
9.25128171e-08
1.21304497e-07
1.5921954e-07
2.07312188e-07
2.65171618e-07
3.30556312e-07
3.99544686e-07
4.67562502e-07
5.30388032e-07
5.84767422e-07
6.28505199e-07
6.60793613e-07
6.81494967e-07
6.90416835e-07
6.88014082e-07
6.73644303e-07
6.46647936e-07
6.08251718e-07
5.57227727e-07
4.91370937e-07
4.09575224e-07
3.16934318e-07
2.29232668e-07
1.61190002e-07
1.13256561e-07
8.00279671e-08
5.68718045e-08
4.06554039e-08
2.94393033e-08
2.16632584e-08
1.6088927e-08
1.20601563e-08
8.98840022e-09
6.67687628e-09
4.95856837e-09
3.68905017e-09
2.75251946e-09
2.06065331e-09
1.54804247e-09
1.16705315e-09
8.83001111e-10
6.70579823e-10
5.11231769e-10
3.91226451e-10
3.00220323e-10
2.30497493e-10
1.76936151e-10
1.35768896e-10
1.04129774e-10
7.98250492e-11
6.11680969e-11
4.68593759e-11
3.58985364e-11
2.75011849e-11
2.10689779e-11
1.61481838e-11
1.23843802e-11
9.50551566e-12
7.30306298e-12
5.61746345e-12
4.32699943e-12
3.33818847e-12
2.57938071e-12
1.99623821e-12
1.54744315e-12
1.20150851e-12
9.34463508e-13
7.28099724e-13
5.68472395e-13
4.44729892e-13
3.48573623e-13
2.73705897e-13
2.15380174e-13
1.69860537e-13
1.34200677e-13
1.06162258e-13
8.40962738e-14
6.67721784e-14
5.31087745e-14
4.23280703e-14
3.3758559e-14
2.69872288e-14
2.16404167e-14
1.74101274e-14
1.40670974e-14
1.14031145e-14
9.31392971e-15
7.65789476e-15
6.33717228e-15
5.27997779e-15
4.42864766e-15
3.74765912e-15
3.19692403e-15
2.74972952e-15
2.38306707e-15
2.08082087e-15
1.82941219e-15
1.61951241e-15
1.44442777e-15
1.29570167e-15
1.16800295e-15
1.05738146e-15
9.60158983e-16
8.73678724e-16
7.95994608e-16
7.25676124e-16
6.61610753e-16
6.02937963e-16
5.49073624e-16
4.99626666e-16
4.54292884e-16
4.1280598e-16
3.74910923e-16
3.40346273e-16
3.08842048e-16
2.80135738e-16
2.53980012e-16
2.299767e-16
2.08167369e-16
1.88315683e-16
1.70219313e-16
1.53713671e-16
1.3865935e-16
1.24933562e-16
1.12425459e-16
1.01033923e-16
9.06668403e-17
8.12412908e-17
7.26840975e-17
6.49322344e-17
5.7932436e-17
5.16392727e-17
4.60112596e-17
4.10043592e-17
3.65629676e-17
3.26798323e-17
2.92722315e-17
2.62797812e-17
2.36472167e-17
2.13246233e-17
1.92679366e-17
1.74390434e-17
1.58056534e-17
1.43412873e-17
1.30258831e-17
1.184813e-17
1.08118273e-17
9.95259429e-18
9.37962736e-18
2.1534807e-12
7.3885503e-13
2.21250422e-13
6.68997829e-14
6.93908145e-14
5.89522174e-12
1.00456072e-11
9.0226493e-12
6.08168918e-12
3.50261324e-12
1.84994542e-12
1.95934647e-12
3.26092341e-12
4.17820093e-12
4.11067049e-12
3.36918321e-12
2.44143234e-12
1.63845613e-12
1.19376173e-12
1.48186512e-12
2.24258388e-12
2.98180424e-12
3.41186826e-12
3.50381621e-12
3.35330882e-12
3.06186823e-12
2.76532055e-12
2.84129643e-12
3.54283673e-12
4.77754136e-12
6.25431564e-12
7.66669004e-12
8.78681441e-12
9.49675211e-12
9.78325639e-12
9.81764683e-12
1.00533346e-11
1.0928542e-11
1.25768192e-11
1.47933889e-11
1.72027723e-11
1.94206267e-11
2.11820035e-11
2.23519208e-11
2.303414e-11
2.36531491e-11
2.48371785e-11
2.70439856e-11
3.03253598e-11
3.43628736e-11
3.86595172e-11
4.27336372e-11
4.62404617e-11
4.90649038e-11
5.14407329e-11
5.39773706e-11
5.74243985e-11
6.23102859e-11
6.87224298e-11
7.63319538e-11
8.46027493e-11
9.30803632e-11
1.01620802e-10
1.10397051e-10
1.19716899e-10
1.29758982e-10
1.40474371e-10
1.51585116e-10
1.62756669e-10
1.7379084e-10
1.84919058e-10
1.96946403e-10
2.11135462e-10
2.28849625e-10
2.51026736e-10
2.78020678e-10
3.09443131e-10
3.444968e-10
3.82165284e-10
4.21536506e-10
4.62023562e-10
5.0359898e-10
5.47022711e-10
5.93961484e-10
6.46783596e-10
7.0825198e-10
7.80907859e-10
8.66678164e-10
9.66712938e-10
1.08147063e-09
1.21098528e-09
1.35521929e-09
1.51438083e-09
1.68926131e-09
1.8814652e-09
2.0935728e-09
2.32931755e-09
2.59381976e-09
2.89378761e-09
3.23719531e-09
3.63315396e-09
4.09213154e-09
4.62610594e-09
5.24893638e-09
5.97661705e-09
6.82833123e-09
7.82772602e-09
9.00421149e-09
1.03955294e-08
1.20500156e-08
1.40296575e-08
1.64155136e-08
1.93148592e-08
2.28716626e-08
2.72797067e-08
3.2799192e-08
3.97903861e-08
4.87498876e-08
6.03580655e-08
7.55174688e-08
9.54217458e-08
1.21524574e-07
1.55349084e-07
1.98053762e-07
2.49907142e-07
3.09713201e-07
3.74826198e-07
4.41257146e-07
5.04843675e-07
5.61987951e-07
6.10023336e-07
6.47050678e-07
6.72755567e-07
6.87111752e-07
6.8949625e-07
6.80616232e-07
6.58978498e-07
6.26770122e-07
5.82673428e-07
5.25202436e-07
4.53040719e-07
3.67969015e-07
2.79626645e-07
2.02913043e-07
1.44961613e-07
1.03377984e-07
7.38749171e-08
5.29576309e-08
3.81143107e-08
2.76535618e-08
2.02891874e-08
1.50310029e-08
1.13497265e-08
8.49583849e-09
6.34258023e-09
4.7347579e-09
3.53963439e-09
2.65213654e-09
1.99228812e-09
1.50058142e-09
1.133454e-09
8.58797604e-10
6.52907567e-10
4.98202142e-10
3.81570842e-10
2.93125848e-10
2.25364418e-10
1.73183296e-10
1.33005184e-10
1.02083956e-10
7.83055938e-11
6.00374011e-11
4.60172677e-11
3.52729285e-11
2.70323921e-11
2.07199762e-11
1.58882143e-11
1.21906818e-11
9.36114253e-12
7.19538468e-12
5.53706067e-12
4.26679852e-12
3.29306409e-12
2.54551114e-12
1.97075275e-12
1.52821852e-12
1.18701e-12
9.2355354e-13
7.19872766e-13
5.62199809e-13
4.39929797e-13
3.44939084e-13
2.70967484e-13
2.13275219e-13
1.68202647e-13
1.32910469e-13
1.05210771e-13
8.33951981e-14
6.62220727e-14
5.26629087e-14
4.19885159e-14
3.35305223e-14
2.68281148e-14
2.15131978e-14
1.73054722e-14
1.39918171e-14
1.13591149e-14
9.28606283e-15
7.63443162e-15
6.316938e-15
5.26731185e-15
4.42344412e-15
3.74529257e-15
3.19476871e-15
2.74796127e-15
2.38287093e-15
2.08192468e-15
1.83108258e-15
1.62073042e-15
1.44474207e-15
1.29577793e-15
1.16786068e-15
1.05680465e-15
9.59157809e-16
8.72412852e-16
7.94584507e-16
7.24141631e-16
6.59951249e-16
6.01194013e-16
5.47296747e-16
4.97846824e-16
4.52523937e-16
4.11060662e-16
3.73204573e-16
3.38693168e-16
3.07253702e-16
2.78624295e-16
2.52607059e-16
2.2864422e-16
2.06921763e-16
1.87162372e-16
1.69156824e-16
1.527395e-16
1.37770365e-16
1.24125814e-16
1.11694302e-16
1.00374305e-16
9.00735866e-17
8.07093119e-17
7.22085123e-17
6.45084068e-17
5.75559361e-17
5.13058099e-17
4.57166799e-17
4.0745017e-17
3.63395275e-17
3.24804219e-17
2.90952357e-17
2.61230707e-17
2.35085171e-17
2.12017626e-17
1.9158918e-17
1.73420748e-17
1.57191584e-17
1.42638945e-17
1.29564013e-17
1.17855247e-17
1.07551525e-17
9.9008115e-18
9.33111718e-18
2.23230972e-10
3.31859826e-11
5.15173804e-12
9.09926524e-13
2.90483959e-12
3.52109739e-10
4.27282394e-10
2.65661499e-10
1.26456402e-10
5.25897114e-11
2.07576869e-11
3.97674917e-11
7.24727673e-11
7.84587823e-11
6.24204953e-11
4.12380021e-11
2.43685309e-11
1.36807006e-11
1.0319545e-11
1.83747827e-11
2.871799e-11
3.43539746e-11
3.45153831e-11
3.14066156e-11
2.70559696e-11
2.25625481e-11
1.91529412e-11
2.08380121e-11
2.80731502e-11
3.77726438e-11
4.67711714e-11
5.3163503e-11
5.6263661e-11
5.62474724e-11
5.38337358e-11
5.09288944e-11
5.10144624e-11
5.58754984e-11
6.45105029e-11
7.43974415e-11
8.31338157e-11
8.9198732e-11
9.20992961e-11
9.20528508e-11
9.0370008e-11
8.97968531e-11
9.31106719e-11
1.01138004e-10
1.12564707e-10
1.25060168e-10
1.36448484e-10
1.45312382e-10
1.51100666e-10
1.54222451e-10
1.56348552e-10
1.60144842e-10
1.67912521e-10
1.80369809e-10
1.96529151e-10
2.14439647e-10
2.32192172e-10
2.48794559e-10
2.64524875e-10
2.80423772e-10
2.9743089e-10
3.15695259e-10
3.34611441e-10
3.53149656e-10
3.70466958e-10
3.86405797e-10
4.02126701e-10
4.20117533e-10
4.43463671e-10
4.74700241e-10
5.14762735e-10
5.63017277e-10
6.17532082e-10
6.75925006e-10
7.35963055e-10
7.96067895e-10
8.55593671e-10
9.15163693e-10
9.76929439e-10
1.04454378e-09
1.12247035e-09
1.21518841e-09
1.32607926e-09
1.4569961e-09
1.60832809e-09
1.77945435e-09
1.96940698e-09
2.17747683e-09
2.40369044e-09
2.64918428e-09
2.91645175e-09
3.20949445e-09
3.53387941e-09
3.8971618e-09
4.30870734e-09
4.77921004e-09
5.32075302e-09
5.94677147e-09
6.67241209e-09
7.5150492e-09
8.49472001e-09
9.63529128e-09
1.09664646e-08
1.25254274e-08
1.43598406e-08
1.65303132e-08
1.9113882e-08
2.22108168e-08
2.5952887e-08
3.0515604e-08
3.61318758e-08
4.31072659e-08
5.18605604e-08
6.29530738e-08
7.71272149e-08
9.53093912e-08
1.18669504e-07
1.4851463e-07
1.86036122e-07
2.31855013e-07
2.85683774e-07
3.4585823e-07
4.09653111e-07
4.7309924e-07
5.3243842e-07
5.84558224e-07
6.27200182e-07
6.58540266e-07
6.78772298e-07
6.87870718e-07
6.84612231e-07
6.70233193e-07
6.44320793e-07
6.07660559e-07
5.58492395e-07
4.9593964e-07
4.20023381e-07
3.35378824e-07
2.53431316e-07
1.85311393e-07
1.33853294e-07
9.63710502e-08
6.93966617e-08
5.00558067e-08
3.62058671e-08
2.6346622e-08
1.93441596e-08
1.43337734e-08
1.08372539e-08
8.14072122e-09
6.10227384e-09
4.57346689e-09
3.43124951e-09
2.57865451e-09
1.94166982e-09
1.46498363e-09
1.10793841e-09
8.40213514e-10
6.39217512e-10
4.88038463e-10
3.73993024e-10
2.87503815e-10
2.21266109e-10
1.70176304e-10
1.30784783e-10
1.00436909e-10
7.70804318e-11
5.91246678e-11
4.53368507e-11
3.4767622e-11
2.66535262e-11
2.04375639e-11
1.56777348e-11
1.20337853e-11
9.2441458e-12
7.1080883e-12
5.47185648e-12
4.21797159e-12
3.25644135e-12
2.5180069e-12
1.95006214e-12
1.51262231e-12
1.17524013e-12
9.14675659e-13
7.13173077e-13
5.57114125e-13
4.36050198e-13
3.41982048e-13
2.68718509e-13
2.11555355e-13
1.66874736e-13
1.31880611e-13
1.04428446e-13
8.28050172e-14
6.57711603e-14
5.23159295e-14
4.17235198e-14
3.33387583e-14
2.66876062e-14
2.14085495e-14
1.72271767e-14
1.39342836e-14
1.13204184e-14
9.25936526e-15
7.61520819e-15
6.30282167e-15
5.25784917e-15
4.41802389e-15
3.74215829e-15
3.19300992e-15
2.74705631e-15
2.38270789e-15
2.08225063e-15
1.83169193e-15
1.62128507e-15
1.44492733e-15
1.29568543e-15
1.1674986e-15
1.05613147e-15
9.58216625e-16
8.71275114e-16
7.93306767e-16
7.22757595e-16
6.58486808e-16
5.99681761e-16
5.45766803e-16
4.96320236e-16
4.51015978e-16
4.09584174e-16
3.71770637e-16
3.37311064e-16
3.05931175e-16
2.77367591e-16
2.51482754e-16
2.27541137e-16
2.05895437e-16
1.86213789e-16
1.68283764e-16
1.51939535e-16
1.37040732e-16
1.2346315e-16
1.11094711e-16
9.98335725e-17
8.95874124e-17
8.027348e-17
7.181899e-17
6.41613675e-17
5.7247724e-17
5.10328849e-17
4.54756104e-17
4.0532718e-17
3.61546131e-17
3.23167115e-17
2.89502655e-17
2.59947852e-17
2.33949722e-17
2.11011598e-17
1.9069624e-17
1.72626288e-17
1.5648272e-17
1.42004479e-17
1.28994276e-17
1.17341847e-17
1.07086731e-17
9.85834133e-18
9.29133197e-18
5.59848141e-28
1.47522412e-27
1.49719083e-27
9.09706546e-28
5.16763897e-28
2.95053451e-28
1.72143419e-28
1.0185835e-28
6.18278297e-29
3.835379e-29
2.41490696e-29
1.54867763e-29
1.01872283e-29
6.91184424e-30
4.75728542e-30
3.36214971e-30
2.44998925e-30
1.8072965e-30
1.36772177e-30
1.04144186e-30
8.21137312e-31
6.46424809e-31
5.20624338e-31
4.29299308e-31
3.60674612e-31
3.14327534e-31
2.73472269e-31
2.4659037e-31
3.73644718e-31
8.4134998e-30
4.59905405e-28
2.87310239e-26
1.86786826e-24
1.22741556e-22
8.17856933e-21
5.55140298e-19
3.87487545e-17
2.81839207e-15
2.21154792e-13
1.91380787e-11
9.53529958e-28
1.13976401e-27
9.71551611e-28
7.72139101e-28
5.66595594e-28
3.94372609e-28
2.68050938e-28
1.8090636e-28
1.22302741e-28
8.28105577e-29
5.61032304e-29
3.79883536e-29
2.6126437e-29
1.81007938e-29
1.27486654e-29
9.12301697e-30
6.65518285e-30
4.92126897e-30
3.68703613e-30
2.78003607e-30
2.12627964e-30
1.62703826e-30
1.26602656e-30
1.00253373e-30
7.79406762e-31
6.32567233e-31
5.25468581e-31
4.4160004e-31
4.6201522e-31
5.96785013e-30
3.5127944e-28
2.17766811e-26
1.33532051e-24
7.99164885e-23
4.62697788e-21
2.5656711e-19
1.32765621e-17
6.23095794e-16
2.57076277e-14
1.43425841e-12
1.34194449e-28
5.37667869e-28
7.20275564e-28
6.6886949e-28
5.86585369e-28
4.98353916e-28
3.86956618e-28
3.00669986e-28
2.32253897e-28
1.77259316e-28
1.33260735e-28
9.88445799e-29
7.29438991e-29
5.36903416e-29
3.96269214e-29
2.93496297e-29
2.19046106e-29
1.64795966e-29
1.24334252e-29
9.41650518e-30
7.14885208e-30
5.45488204e-30
4.14769014e-30
3.16142085e-30
2.41486925e-30
1.8607889e-30
1.45068185e-30
1.13643975e-30
9.08947341e-31
1.52514023e-30
5.19494566e-29
3.09651984e-27
1.8222509e-25
1.03814821e-23
5.66353799e-22
2.91835214e-20
1.39175507e-18
6.07457021e-17
2.45744615e-15
1.06066922e-13
8.84396343e-29
4.09450052e-28
8.42963302e-28
6.13507999e-28
6.15320238e-28
6.20262017e-28
4.57632507e-28
3.6165855e-28
2.93791714e-28
2.37618528e-28
1.89344979e-28
1.4856579e-28
1.15114146e-28
8.84249888e-29
6.76754758e-29
5.16788684e-29
3.94835132e-29
3.02332632e-29
2.32053204e-29
1.77897786e-29
1.36282195e-29
1.04164251e-29
7.9412372e-30
6.03889134e-30
4.59311277e-30
3.495993e-30