/*--------------------------------*- C++ -*----------------------------------*\
  =========                 |
  \\      /  F ield         | OpenFOAM: The Open Source CFD Toolbox
   \\    /   O peration     | Website:  https://openfoam.org
    \\  /    A nd           | Version:  6
     \\/     M anipulation  |
\*---------------------------------------------------------------------------*/
FoamFile
{
    version     2.0;
    format      ascii;
    class       volScalarField;
    location    "25000";
    object      C2H2;
}
// * * * * * * * * * * * * * * * * * * * * * * * * * * * * * * * * * * * * * //

dimensions      [0 0 0 0 0 0 0];

internalField   nonuniform List<scalar> 
44870
(
3.43877992e-96
1.08729904e-95
3.78891197e-95
1.46995688e-93
1.81654556e-91
2.31446831e-89
2.98877121e-87
3.91397047e-85
5.20174868e-83
7.02075892e-81
9.62971247e-79
1.34301458e-76
1.90540178e-74
2.75097847e-72
4.04261265e-70
6.04732704e-68
9.20773389e-66
1.42688893e-63
2.24976627e-61
3.60823309e-59
5.88371642e-57
9.7514179e-55
1.64172329e-52
2.80663979e-50
4.86922775e-48
8.56943081e-46
1.52873847e-43
2.7632995e-41
5.05568975e-39
9.35778664e-37
1.74938164e-34
3.30004954e-32
6.26311585e-30
1.1933759e-27
2.26873732e-25
4.27724039e-23
7.87733767e-21
1.3893385e-18
2.21012434e-16
2.97749249e-14
1.95397904e-96
8.5298896e-96
3.19246908e-95
1.05311387e-93
1.29685143e-91
1.66363464e-89
2.17808045e-87
2.91446245e-85
3.99209447e-83
5.60396428e-81
8.06858376e-79
1.19184504e-76
1.8059605e-74
2.80569864e-72
4.46457397e-70
7.26997012e-68
1.20956096e-65
2.0539954e-63
3.55393013e-61
6.25987754e-59
1.12058575e-56
2.0375999e-54
3.75723363e-52
7.0259164e-50
1.33002598e-47
2.55059715e-45
4.94485972e-43
9.7059207e-41
1.92386609e-38
3.86038877e-36
7.81438311e-34
1.60140685e-31
3.30624728e-29
6.91105568e-27
1.45147584e-24
3.07898469e-22
6.50378598e-20
1.37138104e-17
2.70399483e-15
5.07478473e-13
7.43192105e-96
3.22352121e-95
4.70219267e-95
4.66930388e-94
5.51118147e-92
7.48090056e-90
1.06830362e-87
1.60590339e-85
2.53611119e-83
4.19295442e-81
7.21919161e-79
1.28698035e-76
2.36198569e-74
4.44004705e-72
8.50732489e-70
1.65722429e-67
3.26857529e-65
6.5204375e-63
1.31178801e-60
2.66123225e-58
5.43342678e-56
1.11727217e-53
2.30893542e-51
4.80489309e-49
1.00399817e-46
2.11368262e-44
4.46520768e-42
9.51272815e-40
2.0321901e-37
4.38499076e-35
9.47959024e-33
2.0739166e-30
4.53963983e-28
1.00845643e-25
2.23959701e-23
5.06227804e-21
1.14249403e-18
2.64543539e-16
5.87930917e-14
1.34271363e-11
1.37590432e-95
2.56223034e-95
2.63572659e-95
1.38268932e-94
2.25762384e-92
4.45877406e-90
9.4900852e-88
2.11097054e-85
4.81511848e-83
1.1123024e-80
2.5813872e-78
5.98929648e-76
1.38489806e-73
3.18731146e-71
7.29287691e-69
1.65930891e-66
3.75325197e-64
8.4472289e-62
1.89147645e-59
4.21756661e-57
9.37063366e-55
2.07617803e-52
4.58830251e-50
1.01266101e-47
2.23145027e-45
4.91760339e-43
1.08302296e-40
2.38832142e-38
5.26649102e-36
1.16472542e-33
2.5764837e-31
5.72495542e-29
1.27236739e-26
2.84500355e-24
6.36228451e-22
1.43067142e-19
3.20870378e-17
7.20681412e-15
1.56634732e-12
3.31123043e-10
5.28987452e-95
6.21725033e-95
7.75281465e-95
1.48000068e-94
7.12224811e-92
2.2061024e-89
6.56077851e-87
1.87920029e-84
5.20215611e-82
1.39659077e-79
3.64776635e-77
9.29711645e-75
2.31853318e-72
5.67138197e-70
1.36378046e-67
3.23031919e-65
7.55043098e-63
1.74428438e-60
3.98841756e-58
9.03806155e-56
2.03199918e-53
4.53715279e-51
1.00700887e-48
2.22339433e-46
4.88684238e-44
1.06993894e-41
2.33474708e-39
5.07933305e-37
1.10237689e-34
2.38724257e-32
5.16078475e-30
1.11395384e-27
2.40166891e-25
5.17255616e-23
1.11316946e-20
2.39383595e-18
5.14529211e-16
1.10529289e-13
2.37321828e-11
5.12040258e-09
9.50353926e-13
3.94711776e-12
1.02113907e-11
2.17410061e-11
4.13995143e-11
7.30343611e-11
1.21983159e-10
1.96517824e-10
3.09372232e-10
4.81353376e-10
7.43001588e-10
1.14099183e-09
1.73838975e-09
2.62568506e-09
3.9216052e-09
5.7839544e-09
8.42339104e-09
1.21018129e-08
1.71797178e-08
2.40810406e-08
3.33780339e-08
4.57555072e-08
6.20815661e-08
8.34389372e-08
1.1115479e-07
1.46910493e-07
1.92596984e-07
2.5096361e-07
3.24651444e-07
4.17836695e-07
5.34719231e-07
6.808448e-07
8.62855108e-07
1.08790379e-06
1.36579262e-06
1.7061253e-06
2.1224325e-06
2.62784042e-06
3.24009685e-06
3.97743502e-06
4.86293601e-06
5.9219233e-06
7.18366582e-06
8.67872759e-06
1.04458775e-05
1.25199744e-05
1.4939801e-05
1.77461645e-05
2.09819674e-05
2.46926954e-05
2.89255155e-05
3.37299261e-05
3.91552764e-05
4.52514668e-05
5.20649084e-05
5.96389086e-05
6.80091668e-05
7.72042339e-05
8.72431272e-05
9.81364194e-05
0.000109886812
0.000122489371
0.000135935417
0.000150210871
0.000165306008
0.000181209259
0.000197921206
0.000215442597
0.00023378609
0.00025295755
0.00027296322
0.00029379734
0.000315437884
0.000337863263
0.000361017857
0.00038488636
0.000409374059
0.000434457951
0.000460095188
0.000486255708
0.000512914071
0.000540052842
0.000567666496
0.000595752123
0.000624311134
0.000653340137
0.000682843256
0.000712811443
0.000743239933
0.000774127336
0.000805472418
0.000837283816
0.000869573625
0.000902364197
0.000935688615
0.000969591429
0.00100412776
0.00103936485
0.0010753807
0.00111226919
0.00115012251
0.00118905473
0.00122918409
0.00127064506
0.00131358138
0.00135816443
0.00140459482
0.00145310607
0.00150400678
0.0015576781
0.00161461284
0.001675441
0.00174098829
0.00181237318
0.00189111704
0.00197931042
0.00207987104
0.00219688762
0.00233602552
0.00250487852
0.00271293445
0.00297043002
0.00328513092
0.00365665951
0.00406999871
0.00449346548
0.00488485889
0.0052036612
0.00542139403
0.0055251171
0.00551529007
0.00540136586
0.00519704092
0.00491724999
0.00457657287
0.00418811563
0.00376336406
0.00331225065
0.00284360575
0.00236536999
0.00189167007
0.0014422667
0.00104400229
0.000726409509
0.000499835639
0.000346659672
0.000242905296
0.000171633034
0.000122116662
8.75060253e-05
6.30242349e-05
4.55909781e-05
3.32013811e-05
2.43634878e-05
1.79935995e-05
1.33407186e-05
9.91648952e-06
7.38566416e-06
5.51022828e-06
4.1179511e-06
3.08249115e-06
2.31079239e-06
1.73431125e-06
1.30268308e-06
9.79297883e-07
7.37335546e-07
5.55956524e-07
4.19808563e-07
3.17481725e-07
2.40471544e-07
1.82431263e-07
1.38621794e-07
1.05503638e-07
8.04329062e-08
6.1418005e-08
4.69614833e-08
3.59593851e-08
2.75756935e-08
2.11780836e-08
1.62892351e-08
1.25483178e-08
9.68205768e-09
7.48316216e-09
5.79422303e-09
4.49552382e-09
3.49575153e-09
2.72514083e-09
2.13046782e-09
1.67116762e-09
1.31616024e-09
1.04131905e-09
8.28423681e-10
6.63256479e-10
5.35332246e-10
4.36217814e-10
3.59308983e-10
2.99611032e-10
2.53526475e-10
2.18266018e-10
1.91414399e-10
1.71248423e-10
1.56359826e-10
1.45935442e-10
1.39101817e-10
1.35282249e-10
1.33992977e-10
1.34930224e-10
1.37853436e-10
1.4232314e-10
1.48264654e-10
1.5544286e-10
1.63765947e-10
1.7301086e-10
1.83098412e-10
1.93985954e-10
2.05619186e-10
2.17838856e-10
2.30117086e-10
2.43377571e-10
2.5795238e-10
2.73370548e-10
2.89725141e-10
3.06972252e-10
3.25077124e-10
3.43862007e-10
3.63130919e-10
3.82683881e-10
4.02399609e-10
4.22344713e-10
4.42729939e-10
4.638507e-10
4.86039997e-10
5.09601878e-10
5.34738957e-10
5.6152391e-10
5.89940097e-10
6.20018173e-10
6.51705703e-10
6.83439477e-10
7.15446184e-10
7.47579641e-10
7.7949429e-10
8.10859709e-10
8.41414453e-10
8.70962976e-10
8.99367223e-10
9.26545424e-10
9.52477071e-10
9.77211048e-10
1.00087391e-09
1.02367477e-09
1.04590134e-09
1.06790019e-09
1.09003633e-09
1.11265287e-09
1.13618577e-09
1.15933121e-09
1.18275246e-09
1.20597582e-09
1.22851294e-09
1.24994302e-09
1.26994782e-09
1.28833095e-09
1.30501316e-09
1.32000794e-09
1.33338394e-09
1.34521125e-09
1.35547297e-09
1.36388496e-09
1.36948064e-09
1.96138685e-11
6.99207622e-11
1.57185216e-10
3.01631918e-10
5.29901357e-10
8.74273868e-10
1.3828341e-09
2.14447348e-09
3.30629384e-09
5.10849796e-09
7.88943996e-09
1.21345599e-08
1.8457404e-08
2.76881204e-08
4.08557209e-08
5.926477e-08
8.45778177e-08
1.18766427e-07
1.64389313e-07
2.24259853e-07
3.01922096e-07
4.01349376e-07
5.27114236e-07
6.84787573e-07
8.80045061e-07
1.1204943e-06
1.41342693e-06
1.76883713e-06
2.19585683e-06
2.70666059e-06
3.3127132e-06
4.0274271e-06
4.86392025e-06
5.83634826e-06
6.95965603e-06
8.24884809e-06
9.72128123e-06
1.13932e-05
1.32847646e-05
1.54136719e-05
1.78019551e-05
2.04679209e-05
2.34327308e-05
2.67108529e-05
3.0328237e-05
3.42984206e-05
3.86392938e-05
4.33697576e-05
4.85097117e-05
5.40801749e-05
6.01027288e-05
6.66000727e-05
7.35952917e-05
8.1112862e-05
8.91779376e-05
9.7817176e-05
0.000107056956
0.000116923333
0.000127439656
0.000138626152
0.000150498219
0.000163067097
0.000176339833
0.000190321429
0.000205017622
0.000220432515
0.000236578836
0.000253469148
0.000271122499
0.000289552577
0.000308771487
0.000328780156
0.000349565985
0.000371111996
0.000393375407
0.000416339654
0.000439924492
0.00046410943
0.000488857269
0.000514144101
0.000539947464
0.000566255822
0.00059306728
0.000620380357
0.000648195816
0.000676511055
0.000705327031
0.000734636235
0.000764433418
0.000794719614
0.000825495477
0.000856770667
0.000888562175
0.000920895901
0.00095380784
0.000987344203
0.00102156083
0.00105652498
0.00109231422
0.00112902221
0.00116673991
0.00120558177
0.00124566773
0.00128713484
0.00133012992
0.00137483006
0.00142144125
0.00147020777
0.00152145282
0.00157557634
0.00163308907
0.00169464726
0.0017611144
0.00183365219
0.00191383484
0.00200381323
0.00210657205
0.0022262586
0.00236855268
0.00254094995
0.00275261668
0.0030130944
0.00332899209
0.00369849663
0.00410540027
0.00451785384
0.0048947983
0.00519776696
0.00540027599
0.00549075669
0.00547030334
0.00534848796
0.00513873037
0.00485559112
0.00451332138
0.00412468487
0.00370092865
0.00325178511
0.00278598384
0.00231201769
0.00184434447
0.00140296021
0.00101472376
0.000707416884
0.000488611658
0.000340009282
0.000238824011
0.000169052954
0.000120450252
8.64065749e-05
6.22839643e-05
4.50898032e-05
3.28744806e-05
2.41522572e-05
1.78481455e-05
1.32374696e-05
9.84230416e-06
7.33226123e-06
5.4719251e-06
4.09064658e-06
3.06313003e-06
2.29710238e-06
1.72462419e-06
1.29579495e-06
9.74293101e-07
7.33666148e-07
5.53257495e-07
4.17821535e-07
3.16018809e-07
2.39394514e-07
1.81638107e-07
1.38037303e-07
1.05072566e-07
8.01152084e-08
6.11833375e-08
4.67868556e-08
3.58296949e-08
2.7479331e-08
2.11063933e-08
1.62358391e-08
1.25085173e-08
9.65237523e-09
7.46101016e-09
5.77768472e-09
4.48319397e-09
3.48658796e-09
2.71834219e-09
2.12542217e-09
1.66744279e-09
1.31346096e-09
1.0393688e-09
8.27063132e-10
6.62309811e-10
5.3471993e-10
4.35887844e-10
3.59188466e-10
2.99631193e-10
2.5365245e-10
2.18504423e-10
1.91750244e-10
1.71659926e-10
1.56823302e-10
1.46450792e-10
1.39676464e-10
1.35904955e-10
1.34661232e-10
1.35643477e-10
1.38617567e-10
1.43128895e-10
1.49105893e-10
1.56331438e-10
1.64708211e-10
1.74008893e-10
1.84133508e-10
1.95054231e-10
2.0673445e-10
2.19011608e-10
2.31299563e-10
2.44603313e-10
2.59226385e-10
2.74660844e-10
2.91036076e-10
3.08294382e-10
3.26403466e-10
3.45196149e-10
3.64477306e-10
3.84044687e-10
4.037775e-10
4.2374578e-10
4.44161287e-10
4.65315431e-10
4.87534807e-10
5.11118731e-10
5.36267176e-10
5.63050954e-10
5.91452486e-10
6.21504794e-10
6.53212356e-10
6.84866258e-10
7.16813666e-10
7.48896114e-10
7.80759889e-10
8.1207469e-10
8.42581314e-10
8.72085895e-10
9.00451185e-10
9.27595617e-10
9.534985e-10
9.78208226e-10
1.00185054e-09
1.02463336e-09
1.0468428e-09
1.06882334e-09
1.09093739e-09
1.11352476e-09
1.13705473e-09
1.16011312e-09
1.18349306e-09
1.20666578e-09
1.22914927e-09
1.25052673e-09
1.27048224e-09
1.28882076e-09
1.30546364e-09
1.32042447e-09
1.33377159e-09
1.34557468e-09
1.35581654e-09
1.36421322e-09
1.3698018e-09
7.37965759e-10
2.28925423e-09
4.58444838e-09
8.02715259e-09
1.29091701e-08
1.9550981e-08
2.891506e-08
4.30368278e-08
6.50938658e-08
9.94223154e-08
1.51138917e-07
2.26088568e-07
3.30450657e-07
4.71315103e-07
6.56506669e-07
8.95186474e-07
1.19757216e-06
1.57452374e-06
2.03758478e-06
2.59769328e-06
3.26587615e-06
4.05249471e-06
4.96814176e-06
6.02413883e-06
7.23219485e-06
8.60694184e-06
1.01612094e-05
1.19118932e-05
1.3868952e-05
1.60459631e-05
1.84515191e-05
2.10934565e-05
2.39775166e-05
2.71109335e-05
3.05010363e-05
3.41577984e-05
3.80923084e-05
4.23155562e-05
4.6839066e-05
5.16688295e-05
5.68114405e-05
6.22662855e-05
6.80361533e-05
7.41131802e-05
8.05114767e-05
8.72248356e-05
9.42544928e-05
0.00010160173
0.000109267136
0.000117250973
0.000125553129
0.000134176149
0.000143125442
0.000152411041
0.000162047299
0.00017205253
0.00018244701
0.000193251906
0.000204487478
0.000216172535
0.00022832433
0.000240960199
0.000254096683
0.000267755234
0.000281955171
0.000296719389
0.000312078686
0.00032806132
0.000344697301
0.000362011423
0.000380023324
0.000398741147
0.000418161196
0.000438270798
0.00045904125
0.000480455624
0.000502458696
0.00052503804
0.000548172414
0.000571851697
0.000596069322
0.000620826288
0.000646127356
0.000671976047
0.000698373066
0.000725317243
0.000752804931
0.000780833408
0.000809399093
0.000838504993
0.000868160738
0.000898383476
0.000929198352
0.000960638998
0.000992747662
0.00102557403
0.00105917558
0.00109362018
0.00112898498
0.00116536258
0.00120284417
0.00124154555
0.00128159166
0.00132312605
0.00136630331
0.00141131224
0.00145837248
0.00150775484
0.00155981368
0.00161499102
0.00167383892
0.00173707442
0.00180563821
0.00188078684
0.00196420784
0.00205817353
0.00216579876
0.00229132801
0.00244041871
0.00262026897
0.00283923626
0.0031052448
0.00342236974
0.00378586301
0.00417730537
0.00456490341
0.00491025969
0.00517928666
0.0053495704
0.00541223627
0.00536959553
0.00523141936
0.00501047759
0.0047205426
0.00437520466
0.00398649618
0.00356517969
0.00312056083
0.00266116938
0.00219712682
0.00174323001
0.00132002207
0.000953726277
0.000668198901
0.000465284795
0.000326029052
0.00023017067
0.00016355178
0.000116883734
8.40422507e-05
6.06892015e-05
4.40093647e-05
3.21735873e-05
2.36924626e-05
1.75294878e-05
1.30106885e-05
9.67931637e-06
7.21500088e-06
5.38791235e-06
4.03083164e-06
3.02076102e-06
2.26716611e-06
1.70344949e-06
1.28074146e-06
9.63391491e-07
7.25662726e-07
5.47367484e-07
4.13484096e-07
3.12824893e-07
2.37042758e-07
1.79905964e-07
1.36760658e-07
1.0413085e-07
7.94211706e-08
6.06706529e-08
4.64049608e-08
3.55461704e-08
2.7268648e-08
2.09496366e-08
1.61190717e-08
1.24214607e-08
9.58743272e-09
7.4125515e-09
5.74152818e-09
4.45623534e-09
3.46652277e-09
2.70344931e-09
2.11440933e-09
1.6593433e-09
1.30756394e-09
1.03520464e-09
8.24082615e-10
6.60290378e-10
5.33424173e-10
4.35156773e-10
3.58895036e-10
2.99686541e-10
2.53976632e-10
2.19052072e-10
1.92481436e-10
1.72553442e-10
1.57856007e-10
1.47606711e-10
1.40950239e-10
1.37280474e-10
1.36137119e-10
1.37221225e-10
1.40300654e-10
1.44907018e-10
1.50973436e-10
1.58298765e-10
1.66781709e-10
1.76197584e-10
1.86418972e-10
1.97426157e-10
2.09199867e-10
2.21588749e-10
2.34128601e-10
2.47472476e-10
2.62041399e-10
2.77508718e-10
2.93920053e-10
3.11207433e-10
3.29335362e-10
3.48146062e-10
3.67447406e-10
3.87042042e-10
4.06812744e-10
4.26831298e-10
4.47309197e-10
4.68531492e-10
4.90814085e-10
5.14445635e-10
5.39618783e-10
5.66399794e-10
5.94769352e-10
6.24767857e-10
6.56522153e-10
6.8799587e-10
7.19815996e-10
7.51788439e-10
7.83541411e-10
8.14745556e-10
8.45146817e-10
8.7455506e-10
9.02834803e-10
9.29904914e-10
9.55744283e-10
9.80400219e-10
1.0039967e-09
1.02673909e-09
1.04890998e-09
1.07084941e-09
1.09291421e-09
1.11543596e-09
1.13877069e-09
1.16182216e-09
1.18511888e-09
1.20818074e-09
1.23054699e-09
1.2518094e-09
1.27165709e-09
1.28989793e-09
1.30645459e-09
1.32134084e-09
1.33462445e-09
1.34637423e-09
1.35657224e-09
1.36493491e-09
1.37050485e-09
2.96558541e-08
7.23718522e-08
1.2655583e-07
1.91365063e-07
2.64906887e-07
3.50123412e-07
4.76542854e-07
6.8791391e-07
1.02663761e-06
1.52559632e-06
2.20326943e-06
3.0663733e-06
4.11700989e-06
5.36491725e-06
6.82617613e-06
8.52387576e-06
1.04756255e-05
1.2691252e-05
1.51686222e-05
1.7892969e-05
2.08474179e-05
2.40171748e-05
2.74020138e-05
3.1010378e-05
3.4865893e-05
3.89916168e-05
4.34078088e-05
4.81241849e-05
5.31236962e-05
5.83953257e-05
6.39200052e-05
6.96858536e-05
7.56931911e-05
8.19559293e-05
8.84955126e-05
9.53333215e-05
0.000102480522
0.000109934661
0.000117678619
0.000125683887
0.000133922802
0.000142369442
0.000151011209
0.000159830962
0.000168845289
0.000178039713
0.000187405603
0.000196929894
0.000206597599
0.000216395545
0.000226317521
0.000236367621
0.00024655924
0.000256913807
0.000267455001
0.000278205574
0.000289183854
0.000300404173
0.00031187855
0.000323618783
0.00033564107
0.000347966264
0.000360621804
0.00037364018
0.000387057384
0.000400912523
0.000415248492
0.000430104858
0.000445518728
0.000461518444
0.000478122516
0.000495335567
0.000513150705
0.000531551703
0.000550516117
0.000570030225
0.000590067458
0.000610633437
0.000631733304
0.000653379308
0.000675591037
0.000698383843
0.00072176844
0.000745752248
0.000770333625
0.000795511133
0.000821279461
0.000847638096
0.000874592169
0.000902154859
0.000930349052
0.000959205549
0.000988761725
0.00101906181
0.00105015568
0.00108209674
0.00111494418
0.00114876743
0.00118364344
0.00121966065
0.00125691753
0.0012955339
0.00133564456
0.00137740476
0.0014209832
0.00146658267
0.00151445118
0.00156490426
0.00161834529
0.00167528007
0.00173632813
0.00180229337
0.0018742315
0.00195353933
0.00204206053
0.00214221502
0.00225726242
0.00239149825
0.00255038817
0.00274045279
0.00296856641
0.00324001859
0.00355516632
0.00390550357
0.00427031386
0.00461886536
0.00491701757
0.0051369407
0.00526157997
0.0052853808
0.00521206674
0.00505159908
0.00481562928
0.00451683975
0.00416799225
0.00378002504
0.00336309306
0.00292590099
0.00247764525
0.00202981601
0.00159805922
0.00120330521
0.000869936231
0.000614926229
0.000433159301
0.000306390235
0.00021784303
0.000155640771
0.000111710108
8.05921573e-05
5.83560255e-05
4.24266083e-05
3.11552754e-05
2.30060158e-05
1.70484748e-05
1.26670264e-05
9.43227293e-06
7.03748819e-06
5.26098688e-06
3.9406635e-06
2.95700931e-06
2.22217884e-06
1.67164844e-06
1.25813865e-06
9.47125723e-07
7.1368369e-07
5.38544322e-07
4.0698361e-07
3.08036767e-07
2.33516271e-07
1.77307928e-07
1.34845275e-07
1.027175e-07
7.83795633e-08
5.98965385e-08
4.58307927e-08
3.51201072e-08
2.69519817e-08
2.07139672e-08
1.59434803e-08
1.22905099e-08
9.48972347e-09
7.33964874e-09
5.68714811e-09
4.41567905e-09
3.4363112e-09
2.68103075e-09
2.09787514e-09
1.64720794e-09
1.29869871e-09
1.02884841e-09
8.19633425e-10
6.57320868e-10
5.31529735e-10
4.34060237e-10
3.58447146e-10
2.99806949e-10
2.54531348e-10
2.19919161e-10
1.93601341e-10
1.7391603e-10
1.5945532e-10
1.49397251e-10
1.42907595e-10
1.39393992e-10
1.38400563e-10
1.39644277e-10
1.42870117e-10
1.4762606e-10
1.53844611e-10
1.6131502e-10
1.69949252e-10
1.79523117e-10
1.89911632e-10
2.01067986e-10
2.12973394e-10
2.25505883e-10
2.38328841e-10
2.51827992e-10
2.66357739e-10
2.81863621e-10
2.98318017e-10
3.15649064e-10
3.33818096e-10
3.52657432e-10
3.719812e-10
3.9160893e-10
4.114332e-10
4.31525073e-10
4.52090812e-10
4.73408524e-10
4.95781654e-10
5.1948319e-10
5.44692494e-10
5.71468105e-10
5.99788432e-10
6.29704199e-10
6.61548595e-10
6.92724611e-10
7.24359368e-10
7.56169276e-10
7.87755773e-10
8.18792918e-10
8.49035018e-10
8.7829763e-10
9.06447891e-10
9.33405266e-10
9.59147987e-10
9.83721735e-10
1.00724785e-09
1.02992783e-09
1.05203909e-09
1.07391503e-09
1.09590424e-09
1.11832183e-09
1.14138433e-09
1.16442049e-09
1.18758e-09
1.21047329e-09
1.23266274e-09
1.25375182e-09
1.27343704e-09
1.2915306e-09
1.30795711e-09
1.32273062e-09
1.33591814e-09
1.34758715e-09
1.35771863e-09
1.36602947e-09
1.37156878e-09
1.15145356e-06
1.74476808e-06
2.20713895e-06
2.56694621e-06
2.85026429e-06
3.21929625e-06
4.5094391e-06
7.06110202e-06
1.07436088e-05
1.52132833e-05
2.00774024e-05
2.5028174e-05
3.00124849e-05
3.51987692e-05
4.07884232e-05
4.68860335e-05
5.34555029e-05
6.03381258e-05
6.73086246e-05
7.41784886e-05
8.08903424e-05
8.7526487e-05
9.4267363e-05
0.000101309771
0.000108810331
0.00011681709
0.000125286934
0.000134046402
0.000142935978
0.000151836711
0.000160720439
0.000169649009
0.000178743043
0.000188130054
0.000197890408
0.000208024401
0.000218448335
0.0002290321
0.000239642101
0.00025018428
0.000260624199
0.00027097985
0.000281303445
0.000291633359
0.000302017769
0.000312431832
0.000322834589
0.00033317788
0.000343428339
0.000353582307
0.00036366843
0.00037374016
0.00038385822
0.00039407635
0.000404425682
0.000414915227
0.000425536143
0.000436276293
0.000447131855
0.000458112916
0.000469248298
0.000480576992
0.000492149503
0.000504010767
0.000516215024
0.0005288089
0.000541835105
0.000555331899
0.00056932919
0.000583839925
0.000598862637
0.000614379878
0.000630366971
0.000646798862
0.000663660186
0.000680955025
0.000698697785
0.000716928294
0.000735688914
0.000755024088
0.000774973558
0.00079556306
0.000816802873
0.000838693409
0.000861224999
0.000884394309
0.000908197477
0.000932642746
0.000957752236
0.000983558977
0.00101010601
0.00103744222
0.00106561954
0.00109469267
0.00112471728
0.00115574866
0.00118784631
0.00122108412
0.00125553089
0.00129127906
0.00132844176
0.00136714634
0.00140754453
0.00144981052
0.00149413109
0.00154072862
0.0015898983
0.00164202057
0.00169757333
0.00175714579
0.00182143654
0.0018913672
0.00196813916
0.00205331806
0.00214891198
0.00225744629
0.00238225586
0.00252749334
0.00269804967
0.00289913062
0.00313525276
0.00340806708
0.00371350009
0.00403953849
0.00436414622
0.00465934773
0.00489659658
0.00505567939
0.00512524758
0.00510300492
0.00499389024
0.00480805119
0.00455533772
0.00424723089
0.00389573228
0.00351025607
0.00310045169
0.00267458711
0.00224360212
0.00181992821
0.00141993034
0.00106443301
0.000773241161
0.000553669347
0.000395351026
0.000282715861
0.00020272538
0.000145823344
0.000105238383
7.62311272e-05
5.53981023e-05
4.041586e-05
2.98434533e-05
2.21043769e-05
1.64100309e-05
1.22091092e-05
9.10298323e-06
6.80134034e-06
5.09262155e-06
3.82142279e-06
2.87290806e-06
2.16292698e-06
1.62979179e-06
1.22838793e-06
9.25761755e-07
6.97974303e-07
5.26963726e-07
3.98446471e-07
3.01746052e-07
2.28881552e-07
1.73892209e-07
1.32326038e-07
1.00857663e-07
7.70090202e-08
5.88754844e-08
4.50743408e-08
3.4558509e-08
2.65344164e-08
2.04030993e-08
1.57117877e-08
1.21176623e-08
9.36071384e-09
7.24338719e-09
5.61535888e-09
4.36213595e-09
3.39640263e-09
2.65141986e-09
2.07608162e-09
1.63125023e-09
1.28702851e-09
1.02043201e-09
8.13801482e-10
6.53485919e-10
5.2911277e-10
4.32655517e-10
3.57882846e-10
3.00028188e-10
2.55354774e-10
2.21138182e-10
1.95144178e-10
1.75773966e-10
1.61648413e-10
1.51842124e-10
1.45564429e-10
1.42270838e-10
1.41475961e-10
1.42936338e-10
1.46333833e-10
1.51293925e-10
1.57739144e-10
1.65400009e-10
1.74224461e-10
1.83981986e-10
1.94612895e-10
2.05992513e-10
2.1806809e-10
2.30768134e-10
2.43836072e-10
2.57562718e-10
2.72171889e-10
2.87733496e-10
3.04234464e-10
3.21621283e-10
3.39858256e-10
3.58738632e-10
3.78084747e-10
3.97747334e-10
4.17638065e-10
4.37823225e-10
4.58497578e-10
4.79931929e-10
5.0241724e-10
5.26206733e-10
5.5146002e-10
5.78224678e-10
6.06476431e-10
6.36273387e-10
6.68284704e-10
6.99004218e-10
7.30409132e-10
7.62009079e-10
7.93375254e-10
8.24190315e-10
8.54220686e-10
8.83289482e-10
9.1126718e-10
9.38073945e-10
9.63687103e-10
9.88150183e-10
1.01158105e-09
1.03417616e-09
1.05620612e-09
1.07799571e-09
1.09988298e-09
1.12216528e-09
1.14498531e-09
1.16789291e-09
1.19085732e-09
1.21352512e-09
1.23548004e-09
1.2563395e-09
1.27580943e-09
1.2937077e-09
1.30996146e-09
1.32458511e-09
1.33764475e-09
1.34920617e-09
1.35924891e-09
1.36749038e-09
1.37298753e-09
2.73011884e-05
2.01419707e-05
1.56180329e-05
1.26638246e-05
1.06750954e-05
1.20589449e-05
2.81603332e-05
4.92459872e-05
6.82400238e-05
8.2626059e-05
9.22128583e-05
9.81957498e-05
0.00010376265
0.000111357647
0.000121436417
0.000133012393
0.00014465483
0.000155116341
0.000163611169
0.000170306073
0.000176194726
0.000182469796
0.000190024648
0.000199209967
0.000209864384
0.00022141017
0.000233080738
0.000244140544
0.000254293294
0.000263694276
0.000272811646
0.000282194907
0.000292271359
0.00030321223
0.000314891776
0.000326939223
0.000338887872
0.000350370049
0.000361225562
0.000371510133
0.000381421696
0.000391196087
0.000401021781
0.000410961709
0.000420994382
0.000430975011
0.000440756212
0.000450246929
0.000459447821
0.00046844251
0.000477361924
0.000486341374
0.000495479313
0.000504817583
0.00051433344
0.000523969538
0.000533662633
0.000543378623
0.000553124705
0.000562943297
0.00057290174
0.000583070295
0.000593518325
0.000604294174
0.00061544738
0.000627016234
0.000639032682
0.000651517624
0.000664479634
0.000677901615
0.000691752141
0.000705985541
0.000720562306
0.000735459941
0.000750684167
0.000766274014
0.000782287279
0.000798798739
0.00081587909
0.000833590383
0.000851974525
0.000871049508
0.000890812371
0.000911249559
0.000932343545
0.000954090994
0.000976496453
0.000999584375
0.00102339668
0.00104798634
0.00107341376
0.00109974054
0.00112702725
0.0011553318
0.00118471025
0.00121521741
0.00124691076
0.00127986671
0.00131414872
0.00134986312
0.00138712921
0.00142608824
0.00146690946
0.00150978491
0.00155491059
0.00160253189
0.00165298916
0.00170672231
0.00176427484
0.00182630017
0.00189354192
0.00196701789
0.00204803187
0.00213825353
0.0022397563
0.00235501923
0.00248729435
0.0026403615
0.00281830381
0.00302489087
0.00326252201
0.0035300647
0.00382069121
0.0041211879
0.00440974051
0.00466142462
0.00485166161
0.00496589568
0.00499605789
0.00494156456
0.00480787264
0.00460537137
0.00434196529
0.0040285406
0.0036768654
0.00329489522
0.00289216625
0.00247794278
0.00206365285
0.00166234973
0.0012905234
0.000967487678
0.000707484505
0.000511510999
0.000368535486
0.000265493331
0.000191524752
0.000138451243
0.000100330757
7.29183377e-05
5.31431426e-05
3.88728634e-05
2.88053251e-05
2.13749244e-05
1.58880685e-05
1.18336193e-05
8.83319757e-06
6.60844974e-06
4.95560757e-06
3.72475583e-06
2.80492089e-06
2.11511092e-06
1.59603002e-06
1.2043795e-06
9.08524424e-07
6.85353983e-07
5.17643481e-07
3.9157076e-07
2.96677334e-07
2.25145573e-07
1.71137568e-07
1.30293297e-07
9.93559762e-08
7.59030277e-08
5.80509818e-08
4.44626368e-08
3.41040944e-08
2.61963715e-08
2.01513133e-08
1.55240582e-08
1.19775776e-08
9.25612866e-09
7.16531138e-09
5.5571123e-09
4.31872088e-09
3.36408407e-09
2.62743753e-09
2.05839642e-09
1.61831122e-09
1.27763521e-09
1.01370352e-09
8.091178e-10
6.50378556e-10
5.27191338e-10
4.3161974e-10
3.57530578e-10
3.00253028e-10
2.56046112e-10
2.22188107e-10
1.96494366e-10
1.77378512e-10
1.63489388e-10
1.53885892e-10
1.47796347e-10
1.44688814e-10
1.44061669e-10
1.45692263e-10
1.49237834e-10
1.54353795e-10
1.60973031e-10
1.68800918e-10
1.77789298e-10
1.87704886e-10
1.98508246e-10
2.10059385e-10
2.22289408e-10
2.35135774e-10
2.4837126e-10
2.62256212e-10
2.76960635e-10
2.92589378e-10
3.09140279e-10
3.26573908e-10
3.44855334e-10
3.63770622e-10
3.83142789e-10
4.02837634e-10
4.22780649e-10
4.43038475e-10
4.63799601e-10
4.85326109e-10
5.07896895e-10
5.31749384e-10
5.57030008e-10
5.83778873e-10
6.1196883e-10
6.41653238e-10
6.73861999e-10
7.04125105e-10
7.35366064e-10
7.66799262e-10
7.97985316e-10
8.28618301e-10
8.58475374e-10
8.8738565e-10
9.15222097e-10
9.41905349e-10
9.67411951e-10
9.91783657e-10
1.01513548e-09
1.0376598e-09
1.05962167e-09
1.08133899e-09
1.1031415e-09
1.12531444e-09
1.14797273e-09
1.17074371e-09
1.19354153e-09
1.21602384e-09
1.23778744e-09
1.25845999e-09
1.27775476e-09
1.29549412e-09
1.31160728e-09
1.32610893e-09
1.33906436e-09
1.35053801e-09
1.3605083e-09
1.36869301e-09
1.37415534e-09
1.69633537e-25
4.83943536e-25
5.27580097e-25
3.25360848e-25
1.85924543e-25
1.06740278e-25
6.27998102e-26
3.75032032e-26
2.2985753e-26
1.43905138e-26
9.15119821e-27
5.93188855e-27
3.93579927e-27
2.70639847e-27
1.88694706e-27
1.36086221e-27
1.01957764e-27
7.70713335e-28
6.03737941e-28
4.73720594e-28
3.89018378e-28
3.15595507e-28
2.63184023e-28
2.2515668e-28
1.95580153e-28
1.77051142e-28
1.58713036e-28
1.76234267e-28
2.26075112e-27
1.45949389e-25
1.00840562e-23
7.02832325e-22
4.92274984e-20
3.46696734e-18
2.45805496e-16
1.75849388e-14
1.27855902e-12
9.55067972e-11
7.58281821e-09
6.55231754e-07
2.94777583e-25
3.88934244e-25
3.37638665e-25
2.7634961e-25
2.06116936e-25
1.44264889e-25
9.83536562e-26
6.66892815e-26
4.53607314e-26
3.09018245e-26
2.10827529e-26
1.43603354e-26
9.95183296e-27
6.91712736e-27
4.89983027e-27
3.53520179e-27
2.60741021e-27
1.95097555e-27
1.48668003e-27
1.14109645e-27
8.93902234e-28
6.98570947e-28
5.60140727e-28
4.60391909e-28
3.64635839e-28
3.07315502e-28
2.66279699e-28
2.37344538e-28
6.0640746e-28
2.7832255e-26
1.89431585e-24
1.30072869e-22
8.94685756e-21
6.15663177e-19
4.23230507e-17
2.90343589e-15
1.98478657e-13
1.34824518e-11
9.04046489e-10
5.79871335e-08
4.23047229e-26
1.9351264e-25
2.48585856e-25
2.32229408e-25
2.07173518e-25
1.80062518e-25
1.40421952e-25
1.09725599e-25
8.53291599e-26
6.55554709e-26
4.95705515e-26
3.69168556e-26
2.73398937e-26
2.01672805e-26
1.49152668e-26
1.10614241e-26
8.27436122e-27
6.25078406e-27
4.73617585e-27
3.61091991e-27
2.76523147e-27
2.13856934e-27
1.64637374e-27
1.27479063e-27
9.90724772e-28
7.80662434e-28
6.2625818e-28
5.05393814e-28
4.80092237e-28
5.19540056e-27
3.32426756e-25
2.25375115e-23
1.52252915e-21
1.02027674e-19
6.74765747e-18
4.3781996e-16
2.76032213e-14
1.66866031e-12
9.36495034e-11
4.60991355e-09
2.98027588e-26
1.43785062e-25
2.90568313e-25
2.17010418e-25
2.21948072e-25
2.28549643e-25
1.66847455e-25
1.31399079e-25
1.07014343e-25
8.69211066e-26
6.95677126e-26
5.47920975e-26
4.25869744e-26
3.27896914e-26
2.51547875e-26
1.92424846e-26
1.47248686e-26
1.1302062e-26
8.70768968e-27
6.70176556e-27
5.16138131e-27
3.96998593e-27
3.04992328e-27
2.34010453e-27
1.80088097e-27
1.3899138e-27
1.08191051e-27
8.4923633e-28
6.78390524e-28
1.39221553e-27
5.88539699e-26
3.87111955e-24
2.53087792e-22
1.62347576e-20
1.01419559e-18
6.11462614e-17
3.50521681e-15
1.87201175e-13
8.89409425e-12
3.51162913e-10
5.99531287e-26
1.38292704e-25
2.40698512e-25
1.92948619e-25
2.37564676e-25
2.3486326e-25
1.77022485e-25
1.3958309e-25