/*--------------------------------*- C++ -*----------------------------------*\
  =========                 |
  \\      /  F ield         | OpenFOAM: The Open Source CFD Toolbox
   \\    /   O peration     | Website:  https://openfoam.org
    \\  /    A nd           | Version:  6
     \\/     M anipulation  |
\*---------------------------------------------------------------------------*/
FoamFile
{
    version     2.0;
    format      ascii;
    class       volScalarField;
    location    "25000";
    object      C2H3;
}
// * * * * * * * * * * * * * * * * * * * * * * * * * * * * * * * * * * * * * //

dimensions      [0 0 0 0 0 0 0];

internalField   nonuniform List<scalar> 
44870
(
7.96510026e-97
3.72228657e-96
7.12566449e-96
8.69145358e-96
9.89213943e-96
1.86879754e-95
1.42350203e-95
1.67552855e-95
4.81263157e-94
8.98557402e-92
1.76325023e-89
3.52453813e-87
7.1863891e-85
1.49658295e-82
3.18776012e-80
6.951412e-78
1.553683e-75
3.56126e-73
8.37865448e-71
2.02382457e-68
5.02188125e-66
1.2799911e-63
3.35257123e-61
9.01961861e-59
2.49308504e-56
7.07434099e-54
2.06068819e-51
6.15465322e-49
1.88389688e-46
5.89936381e-44
1.88774403e-41
6.15495487e-39
2.03954067e-36
6.83287741e-34
2.30078786e-31
7.70292961e-29
2.52626869e-26
7.89836611e-24
2.23434608e-21
5.20717746e-19
8.68451648e-97
2.33346442e-96
4.64301742e-96
8.26876618e-96
1.35449928e-95
2.62028162e-95
3.4908353e-95
2.38959118e-95
1.11968598e-94
1.51290807e-92
2.77278024e-90
5.21502842e-88
1.00723962e-85
2.00326369e-83
4.11255183e-81
8.73903596e-79
1.92731396e-76
4.42347641e-74
1.05958961e-71
2.65546139e-69
6.98057443e-67
1.92783081e-64
5.60194954e-62
1.71275158e-59
5.50961542e-57
1.86160484e-54
6.59795993e-52
2.44625227e-49
9.46970022e-47
3.81560453e-44
1.5969082e-41
6.91708299e-39
3.09230867e-36
1.41897109e-33
6.64637354e-31
3.14444789e-28
1.48238622e-25
6.80599743e-23
2.9011185e-20
1.08256061e-17
2.81563016e-96
1.02305132e-95
1.2973677e-95
1.86153726e-95
1.33521884e-95
2.50030986e-95
2.90606505e-95
3.75599531e-95
3.56096401e-95
7.19185853e-94
1.1482354e-91
1.96185584e-89
3.45694372e-87
6.32076989e-85
1.19582661e-82
2.36155145e-80
4.85093617e-78
1.04524027e-75
2.35575706e-73
5.59943446e-71
1.40018374e-68
3.71839895e-66
1.04899193e-63
3.19950357e-61
1.07124463e-58
4.10748522e-56
1.86692699e-53
1.03302286e-50
6.75779445e-48
4.99996185e-45
3.96181716e-42
3.27013512e-39
2.73085493e-36
2.29046782e-33
1.89058964e-30
1.53476834e-27
1.19679852e-24
8.96412474e-22
6.1110327e-19
3.77426955e-16
4.21445545e-96
8.60553296e-96
6.73669813e-96
1.0262684e-95
3.27372551e-95
2.78923862e-95
3.44122798e-95
3.76834263e-95
7.13720161e-95
6.81678401e-95
1.30921719e-93
1.86911525e-91
2.98316429e-89
5.00096958e-87
8.72812223e-85
1.60895095e-82
3.1058641e-80
6.36911349e-78
1.38653777e-75
3.31579778e-73
9.38192993e-71
3.75329959e-68
2.35551667e-65
2.03688265e-62
2.02312557e-59
2.12454826e-56
2.28466939e-53
2.49461979e-50
2.73714483e-47
3.01295315e-44
3.28788494e-41
3.55544931e-38
3.75920993e-35
3.88936113e-32
3.88284557e-29
3.74474044e-26
3.43305843e-23
2.98776502e-20
2.38759596e-17
1.71770525e-14
2.21784162e-95
3.84176354e-95
3.08357326e-95
1.12961753e-95
3.25614901e-95
9.24393047e-96
1.30676098e-95
5.7574667e-96
9.05686186e-95
1.72364516e-94
5.59640482e-95
1.15348226e-93
1.59447286e-91
2.71135208e-89
5.28924163e-87
1.53411399e-84
8.5381251e-82
7.26587306e-79
7.02401281e-76
6.97534579e-73
6.95846797e-70
6.93942386e-67
6.91417103e-64
6.88132309e-61
6.84299367e-58
6.80003549e-55
6.75336914e-52
6.70342255e-49
6.65272053e-46
6.59933015e-43
6.54702002e-40
6.49303859e-37
6.44093594e-34
6.38758718e-31
6.33703959e-28
6.28672685e-25
6.23861803e-22
6.19186343e-19
6.14643633e-16
6.14114652e-13
4.2813064e-17
9.22624061e-17
1.24620695e-16
1.3775778e-16
1.35703361e-16
1.2413312e-16
1.13887124e-16
1.14415784e-16
1.27293299e-16
1.48025211e-16
1.69119196e-16
1.85358988e-16
1.9527093e-16
2.03947217e-16
2.19081705e-16
2.47212751e-16
2.91006296e-16
3.47542763e-16
4.13003077e-16
4.81295604e-16
5.52154826e-16
6.30975747e-16
7.31889618e-16
8.7710022e-16
1.0948801e-15
1.4186047e-15
1.87571987e-15
2.50560841e-15
3.31367592e-15
4.34427924e-15
5.62430288e-15
7.23607527e-15
9.33782478e-15
1.21302514e-14
1.60020623e-14
2.13341413e-14
2.87426676e-14
3.87277957e-14
5.20141456e-14
6.92426978e-14
9.14410701e-14
1.1997082e-13
1.56927577e-13
2.05225236e-13
2.69327292e-13
3.54494748e-13
4.6743843e-13
6.16145115e-13
8.10026269e-13
1.06058783e-12
1.38240215e-12
1.79515025e-12
2.32530875e-12
3.00916164e-12
3.89400218e-12
5.04061988e-12
6.52273321e-12
8.42857029e-12
1.08609842e-11
1.39412995e-11
1.78145512e-11
2.26568425e-11
2.86881553e-11
3.61771014e-11
4.54633601e-11
5.69488501e-11
7.11502763e-11
8.86884016e-11
1.10369062e-10
1.37152843e-10
1.70225026e-10
2.10959534e-10
2.60856741e-10
3.21711567e-10
3.95157954e-10
4.83585352e-10
5.88805829e-10
7.13700683e-10
8.61401959e-10
1.03588362e-09
1.24180754e-09
1.48470172e-09
1.77130536e-09
2.10933105e-09
2.50782636e-09
2.97684672e-09
3.52901692e-09
4.17799083e-09
4.94062961e-09
5.83759046e-09
6.89350635e-09
8.13923534e-09
9.61117346e-09
1.13534243e-08
1.34191838e-08
1.58727615e-08
1.8791891e-08
2.22717525e-08
2.64292617e-08
3.1410947e-08
3.73987506e-08
4.46179379e-08
5.33485732e-08
6.39435404e-08
7.68376634e-08
9.25919018e-08
1.11935839e-07
1.35813952e-07
1.65502351e-07
2.02683737e-07
2.49628535e-07
3.0941437e-07
3.86266167e-07
4.86070797e-07
6.17022352e-07
7.90530285e-07
1.02241574e-06
1.33423114e-06
1.75415224e-06
2.31607797e-06
3.05391514e-06
3.98692661e-06
5.09352996e-06
6.28172362e-06
7.38256049e-06
8.19651167e-06
8.57698528e-06
8.48884064e-06
8.00335798e-06
7.24781872e-06
6.35356579e-06
5.4257694e-06
4.53638384e-06
3.72705186e-06
3.01590088e-06
2.40670461e-06
1.89411302e-06
1.46873114e-06
1.12009046e-06
8.3814345e-07
6.17444094e-07
4.4757688e-07
3.19320054e-07
2.25434924e-07
1.59169122e-07
1.12979786e-07
8.06614783e-08
5.78737097e-08
4.16988142e-08
3.01558815e-08
2.18811135e-08
1.59261933e-08
1.16265849e-08
8.51327465e-09
6.25310127e-09
4.60841456e-09
3.4103242e-09
2.53492912e-09
1.89091651e-09
1.41365807e-09
1.05895523e-09
7.94456422e-10
5.96776075e-10
4.48819257e-10
3.37929837e-10
2.54727764e-10
1.92231283e-10
1.45233637e-10
1.09850944e-10
8.31821531e-11
6.30585956e-11
4.7857361e-11
3.63629932e-11
2.76656649e-11
2.10808832e-11
1.60857463e-11
1.22924543e-11
9.40815269e-12
7.2118186e-12
5.53686209e-12
4.25759428e-12
3.27904972e-12
2.52938392e-12
1.95419646e-12
1.5122348e-12
1.17212758e-12
9.09975485e-13
7.0759348e-13
5.51155053e-13
4.30092817e-13
3.36231918e-13
2.63342341e-13
2.06651932e-13
1.62615943e-13
1.28367078e-13
1.01625075e-13
8.06686044e-14
6.42629393e-14
5.14506963e-14
4.14052974e-14
3.35236534e-14
2.73128325e-14
2.24710405e-14
1.87014213e-14
1.5768159e-14
1.34927391e-14
1.1727625e-14
1.03843579e-14
9.35420591e-15
8.56124617e-15
7.94593022e-15
7.46863834e-15
7.09586928e-15
6.79983585e-15
6.55693645e-15
6.3494049e-15
6.1648372e-15
5.98716128e-15
5.8205509e-15
5.66579259e-15
5.50894044e-15
5.34991108e-15
5.18799706e-15
5.02189283e-15
4.85065257e-15
4.67429629e-15
4.49334091e-15
4.30870066e-15
4.12178806e-15
3.9346056e-15
3.74942142e-15
3.56831431e-15
3.39290855e-15
3.22421373e-15
3.06262695e-15
2.90816688e-15
2.76098466e-15
2.6207128e-15
2.48287112e-15
2.34938766e-15
2.22041035e-15
2.09560769e-15
1.97475459e-15
1.85781734e-15
1.74487476e-15
1.63604102e-15
1.53142443e-15
1.43111662e-15
1.33520226e-15
1.24377968e-15
1.15698463e-15
1.07500649e-15
9.98082986e-16
9.26462419e-16
8.60326127e-16
7.99579974e-16
7.44356943e-16
6.94194503e-16
6.48582351e-16
6.06996891e-16
5.68928268e-16
5.33909586e-16
5.01533236e-16
4.71459391e-16
4.4342593e-16
4.17272664e-16
3.93006925e-16
3.70965541e-16
3.5221442e-16
3.39500785e-16
1.23690103e-15
1.96019206e-15
2.00595257e-15
1.74520104e-15
1.3906369e-15
1.05551309e-15
1.00023528e-15
1.3094922e-15
1.81701564e-15
2.30637053e-15
2.6194159e-15
2.7270094e-15
2.72719032e-15
2.84438242e-15
3.26935021e-15
4.05960905e-15
5.13651358e-15
6.32841441e-15
7.50858405e-15
8.57887751e-15
9.64331218e-15
1.0968658e-14
1.2963112e-14
1.61460385e-14
2.09608516e-14
2.79335493e-14
3.72599505e-14
4.91350561e-14
6.32724813e-14
7.9831351e-14
9.91649082e-14
1.22682933e-13
1.52671762e-13
1.92354704e-13
2.45781383e-13
3.16694649e-13
4.08683263e-13
5.23268242e-13
6.62222862e-13
8.26500765e-13
1.02087174e-12
1.25238218e-12
1.53406833e-12
1.88178174e-12
2.31794208e-12
2.86396975e-12
3.54179102e-12
4.37173113e-12
5.3741736e-12
6.57443653e-12
8.00842043e-12
9.72900081e-12
1.1808732e-11
1.43420202e-11
1.74408598e-11
2.12317718e-11
2.5848345e-11
3.143376e-11
3.81447016e-11
4.61675925e-11
5.57319654e-11
6.71329014e-11
8.07425174e-11
9.70173175e-11
1.16502245e-10
1.39806255e-10
1.67695439e-10
2.01056479e-10
2.41011733e-10
2.88851942e-10
3.46113848e-10
4.14488221e-10
4.95729617e-10
5.91875636e-10
7.0468399e-10
8.36891644e-10
9.90511691e-10
1.16908019e-09
1.37648037e-09
1.61776226e-09
1.89862555e-09
2.22585823e-09
2.60755603e-09
3.05269392e-09
3.57158378e-09
4.17569681e-09
4.87928554e-09
5.69792029e-09
6.65079763e-09
7.76200168e-09
9.05976252e-09
1.05790888e-08
1.23618133e-08
1.44580587e-08
1.69279304e-08
1.9843598e-08
2.32918424e-08
2.7378547e-08
3.22334331e-08
3.80191684e-08
4.49359689e-08
5.32309942e-08
6.32110696e-08
7.52611748e-08
8.98520205e-08
1.07592889e-07
1.29273892e-07
1.55918521e-07
1.88905199e-07
2.30041376e-07
2.81743003e-07
3.47275995e-07
4.3111596e-07
5.39444629e-07
6.80792831e-07
8.66926755e-07
1.11397876e-06
1.44360572e-06
1.88355182e-06
2.46621126e-06
3.22213833e-06
4.16488947e-06
5.26551484e-06
6.42614755e-06
7.47848375e-06
8.23260131e-06
8.55631342e-06
8.42549099e-06
7.91516211e-06
7.15049953e-06
6.25813104e-06
5.33838849e-06
4.45991472e-06
3.66218038e-06
2.96184833e-06
2.36224957e-06
1.85779293e-06
1.43922177e-06
1.09637438e-06
8.20319675e-07
6.04430201e-07
4.38299246e-07
3.12878318e-07
2.21255281e-07
1.56539653e-07
1.11308484e-07
7.95763487e-08
5.7156331e-08
4.12182639e-08
2.98306612e-08
2.16592058e-08
1.57738021e-08
1.15214664e-08
8.44058926e-09
6.20280186e-09
4.57361068e-09
3.38609225e-09
2.5179355e-09
1.87882155e-09
1.40497701e-09
1.05271446e-09
7.89981211e-10
5.93549259e-10
4.46481252e-10
3.3622835e-10
2.53484715e-10
1.91320876e-10
1.44565565e-10
1.09359905e-10
8.28206967e-11
6.27921605e-11
4.76607169e-11
3.62176973e-11
2.755827e-11
2.10013798e-11
1.60265807e-11
1.22484718e-11
9.37543341e-12
7.18744279e-12
5.51867416e-12
4.24400388e-12
3.26887912e-12
2.52175696e-12
1.94846448e-12
1.50792248e-12
1.16888285e-12
9.0752833e-13
7.0573806e-13
5.49745729e-13
4.290296e-13
3.3542506e-13
2.62733611e-13
2.06184813e-13
1.62262992e-13
1.28108883e-13
1.01436219e-13
8.05247836e-14
6.41506214e-14
5.13710861e-14
4.13537981e-14
3.34915954e-14
2.72908185e-14
2.24564401e-14
1.8696717e-14
1.57715292e-14
1.35004951e-14
1.17365393e-14
1.03948422e-14
9.36681006e-15
8.57505873e-15
7.95995062e-15
7.48227293e-15
7.1094114e-15
6.81325311e-15
6.56994199e-15
6.36178494e-15
6.17656501e-15
5.99791035e-15
5.8306369e-15
5.67556324e-15
5.51773576e-15
5.35779049e-15
5.19504262e-15
5.02817706e-15
4.85621153e-15
4.67916689e-15
4.49759908e-15
4.31243926e-15
4.12507246e-15
3.93746947e-15
3.75188896e-15
3.57040114e-15
3.39461753e-15
3.22554191e-15
3.06357819e-15
2.90875807e-15
2.76125283e-15
2.62088338e-15
2.48265823e-15
2.3489354e-15
2.21980265e-15
2.09488677e-15
1.9739528e-15
1.85696426e-15
1.74399663e-15
1.6351596e-15
1.53055682e-15
1.4302758e-15
1.33439779e-15
1.24301833e-15
1.15627077e-15
1.07434224e-15
9.97468248e-16
9.25894974e-16
8.59801689e-16
7.99092006e-16
7.43908387e-16
6.93774067e-16
6.48187576e-16
6.06626011e-16
5.68579845e-16
5.33582403e-16
5.01226134e-16
4.71171145e-16
4.43155273e-16
4.17018426e-16
3.92767979e-16
3.70740659e-16
3.5200181e-16
3.39296634e-16
7.11237362e-14
7.85655144e-14
5.76814731e-14
3.74330679e-14
2.28441233e-14
1.40905165e-14
2.74026252e-14
5.58187194e-14
8.14227943e-14
9.44364972e-14
9.42296473e-14
8.57800819e-14
7.94407844e-14
8.64749762e-14
1.10175991e-13
1.44787481e-13
1.80759883e-13
2.10502487e-13
2.31053459e-13
2.4411536e-13
2.58190178e-13
2.85485872e-13
3.37589072e-13
4.23211889e-13
5.46655513e-13
7.08808295e-13
9.03328877e-13
1.1190591e-12
1.34274203e-12
1.57418189e-12
1.82734489e-12
2.13348818e-12
2.53218048e-12
3.06521711e-12
3.76523946e-12
4.64587765e-12
5.6965156e-12
6.88372025e-12
8.18233543e-12
9.58637456e-12
1.11414968e-11
1.29215869e-11
1.50407672e-11
1.76052312e-11
2.07347208e-11
2.44971414e-11
2.8918555e-11
3.39905601e-11
3.97124949e-11
4.61397992e-11
5.34118322e-11
6.17575107e-11
7.14712889e-11
8.28796239e-11
9.62909713e-11
1.11961102e-10
1.30081382e-10
1.50826596e-10
1.74417436e-10
2.01201666e-10
2.31686299e-10
2.66598845e-10
3.06828373e-10
3.53415594e-10
4.07402273e-10
4.69862417e-10
5.42158515e-10
6.25783795e-10
7.22603081e-10
8.34644804e-10
9.64161312e-10
1.11337966e-09
1.28437857e-09
1.47950581e-09
1.7006571e-09
1.95142316e-09
2.23461531e-09
2.55573089e-09
2.92090657e-09
3.3380275e-09
3.81555961e-09
4.36329063e-09
4.99223348e-09
5.71409638e-09
6.54185751e-09
7.4902203e-09
8.57695429e-09
9.82281001e-09
1.12527705e-08
1.28981897e-08
1.47968147e-08
1.69944205e-08
1.95452929e-08
2.25137941e-08
2.59762887e-08
3.00232708e-08
3.47626071e-08
4.03251442e-08
4.68706783e-08
5.45995734e-08
6.37541135e-08
7.46324774e-08
8.76036918e-08
1.03126411e-07
1.21752781e-07
1.44202353e-07
1.71405877e-07
2.0457174e-07
2.45307835e-07
2.95702263e-07
3.58490893e-07
4.37366751e-07
5.37341377e-07
6.65225424e-07
8.30241313e-07
1.04483541e-06
1.3256425e-06
1.69424332e-06
2.17695857e-06
2.80225989e-06
3.59272604e-06
4.54928654e-06
5.62793404e-06
6.72055356e-06
7.66329553e-06
8.2884944e-06
8.49398984e-06
8.27669031e-06
7.71767395e-06
6.93676015e-06
6.05050752e-06
5.14911133e-06
4.29463169e-06
3.52211565e-06
2.8451004e-06
2.26620038e-06
1.77926594e-06
1.37541645e-06
1.04514675e-06
7.82300447e-07
5.76826358e-07
4.1843073e-07
2.99285405e-07
2.12466629e-07
1.50978296e-07
1.07751699e-07
7.72556336e-08
5.56171082e-08
4.01847261e-08
2.9129904e-08
2.11803486e-08
1.54445616e-08
1.12941526e-08
8.28331238e-09
6.09391963e-09
4.49825728e-09
3.33365336e-09
2.48110781e-09
1.85255091e-09
1.38612386e-09
1.03914715e-09
7.80240891e-10
5.86521313e-10
4.41386071e-10
3.32518589e-10
2.50773412e-10
1.89334352e-10
1.43107364e-10
1.08287835e-10
8.20313583e-11
6.22102066e-11
4.72311199e-11
3.59002202e-11
2.73236046e-11
2.08276473e-11
1.58972e-11
1.2152312e-11
9.30389124e-12
7.13413818e-12
5.47889631e-12
4.21427352e-12
3.24662325e-12
2.5050689e-12
1.93592898e-12
1.4984899e-12
1.16177497e-12
9.02164879e-13
7.01683886e-13
5.46675376e-13
4.26703093e-13
3.33679317e-13
2.61397809e-13
2.05176858e-13
1.61502248e-13
1.27537765e-13
1.01009826e-13
8.02104331e-14
6.39178822e-14
5.12025065e-14
4.12353677e-14
3.34145324e-14
2.72448266e-14
2.24312832e-14
1.8688254e-14
1.57761137e-14
1.35151956e-14
1.17575884e-14
1.0420095e-14
9.39469551e-15
8.60435914e-15
7.9901841e-15
7.51263649e-15
7.13949315e-15
6.8425385e-15
6.59806951e-15
6.38867944e-15
6.20229406e-15
6.02383314e-15
5.85529263e-15
5.69659378e-15
5.53682221e-15
5.37499244e-15
5.21039107e-15
5.04177967e-15
4.86821282e-15
4.68971277e-15
4.50683548e-15
4.32051586e-15
4.13213092e-15
3.94361356e-15
3.7571794e-15
3.57486387e-15
3.39825614e-15
3.22835606e-15
3.06558136e-15
2.90998676e-15
2.76179248e-15
2.62122643e-15
2.48214853e-15
2.34791699e-15
2.21845285e-15
2.09329337e-15
1.97218488e-15
1.855086e-15
1.74206501e-15
1.63322189e-15
1.52865017e-15
1.42842839e-15
1.33263032e-15
1.24134539e-15
1.1547017e-15
1.0728815e-15
9.96115573e-16
9.24645563e-16
8.58645813e-16
7.98035722e-16
7.42921343e-16
6.92848462e-16
6.4731891e-16
6.05810386e-16
5.67814037e-16
5.32863592e-16
5.00551626e-16
4.70538212e-16
4.42561172e-16
4.16460507e-16
3.92243674e-16
3.70247208e-16
3.51535286e-16
3.38848853e-16
5.93918769e-12
4.24629248e-12
2.24821033e-12
1.09028594e-12
5.15291238e-13
3.03646354e-13
1.94715343e-12
3.79465491e-12
4.5439314e-12
4.25500104e-12
3.45908297e-12
2.62000827e-12
2.30426472e-12
2.79310218e-12
3.79677088e-12
4.78986076e-12
5.41111477e-12
5.5980848e-12
5.46308317e-12
5.22273799e-12
5.21582318e-12
5.71712295e-12
6.83958409e-12
8.5541316e-12
1.07642602e-11
1.32999643e-11
1.59192374e-11
1.83144541e-11
2.034662e-11
2.2211995e-11
2.43414031e-11
2.72588941e-11
3.1400225e-11
3.70189724e-11
4.41081257e-11
5.23587439e-11
6.11946674e-11
7.00222243e-11
7.86162236e-11
8.72145504e-11
9.65156283e-11
1.07313905e-10
1.20415907e-10
1.36272975e-10
1.55191023e-10
1.76916497e-10
2.00835408e-10
2.26312976e-10
2.53132221e-10
2.81704018e-10
3.12977955e-10
3.48188209e-10
3.88541096e-10
4.34958993e-10
4.87859007e-10
5.47122947e-10
6.12333978e-10
6.83228003e-10
7.60075955e-10
8.43872232e-10
9.36229596e-10
1.03942978e-09
1.15586541e-09
1.28774253e-09
1.4366585e-09
1.60415284e-09
1.79246578e-09
2.00403944e-09
2.24202357e-09
2.50950338e-09
2.80945166e-09
3.14419696e-09
3.51545735e-09
3.9254704e-09
4.37625581e-09
4.87355859e-09
5.42302496e-09
6.03506772e-09
6.72110335e-09
7.49444554e-09
8.36910539e-09
9.35938521e-09
1.04801156e-08
1.17469525e-08
1.3176488e-08
1.47887227e-08
1.66077639e-08
1.86629896e-08
2.09907123e-08
2.36362883e-08
2.66544805e-08
3.01106028e-08
3.4080623e-08
3.86533764e-08
4.39327778e-08
5.00400264e-08
5.71183378e-08
6.53405891e-08
7.49178338e-08
8.61131475e-08
9.92383362e-08
1.14677419e-07
1.32903027e-07
1.54493778e-07
1.80131493e-07
2.10711601e-07
2.47404775e-07
2.91727355e-07
3.45648757e-07
4.11690685e-07
4.93081878e-07
5.94151121e-07
7.20698902e-07
8.80411693e-07
1.08337559e-06
1.34272748e-06
1.675299e-06
2.10164906e-06
2.64461116e-06
3.32514868e-06
4.1524694e-06
5.10885963e-06
6.1313225e-06
7.10339156e-06
7.87494739e-06
8.31351667e-06
8.35752403e-06
8.02776209e-06
7.40954585e-06
6.61326804e-06
5.74105354e-06
4.86893859e-06
4.05086771e-06
3.31595979e-06
2.67313623e-06
2.12469463e-06
1.66347233e-06
1.2813966e-06
9.72906683e-07
7.28515411e-07
5.37205956e-07
3.90216407e-07
2.80178087e-07
2.0011816e-07
1.43089793e-07
1.02650008e-07
7.38999486e-08
5.3379045e-08
3.86757317e-08
2.81034789e-08
2.0477126e-08
1.49600445e-08
1.09591103e-08
8.05125535e-09
5.93316102e-09
4.38697377e-09
3.25625538e-09
2.42659914e-09
1.81355687e-09
1.35812675e-09
1.01897436e-09
7.65719154e-10
5.76031472e-10
4.33772953e-10
3.26971008e-10
2.4671608e-10
1.86359533e-10
1.40922501e-10
1.06680769e-10
8.08476264e-11
6.1337151e-11
4.65864072e-11
3.54236105e-11
2.69713076e-11
2.05657312e-11
1.57027068e-11
1.20077972e-11
9.19634931e-12
7.0539904e-12
5.41907078e-12
4.16954425e-12
3.21312915e-12
2.47995323e-12
1.91706523e-12
1.48428973e-12
1.1510637e-12
8.94081835e-13
6.95586135e-13
5.42063204e-13
4.23196746e-13
3.31016437e-13
2.59390284e-13
2.03674512e-13
1.60367377e-13
1.26670591e-13
1.00356733e-13
7.9740126e-14
6.35806986e-14
5.09540952e-14
4.10516224e-14
3.32925139e-14
2.71787274e-14
2.24006164e-14
1.86778114e-14
1.5780781e-14
1.35354864e-14
1.17911969e-14
1.04606075e-14
9.4372103e-15
8.64776738e-15
8.03536485e-15
7.55893857e-15
7.18515085e-15
6.88648927e-15
6.64002903e-15
6.42888681e-15
6.24082004e-15
6.06226582e-15
5.89170249e-15
5.72801655e-15
5.56525107e-15
5.40068389e-15
5.2332671e-15
5.06196972e-15
4.88598349e-15
4.70534717e-15
4.52053457e-15
4.33244901e-15
4.14250461e-15
3.95261066e-15
3.76490505e-15
3.58135354e-15
3.40351473e-15
3.23239021e-15
3.0684178e-15
2.91168e-15
2.7624628e-15
2.62169175e-15
2.48125557e-15
2.34629645e-15
2.21635467e-15
2.0908387e-15
1.96947425e-15
1.8522149e-15
1.73911846e-15
1.63027022e-15
1.52574863e-15
1.42561882e-15
1.32994343e-15
1.2388027e-15
1.15231691e-15
1.07066107e-15
9.94058961e-16
9.2274559e-16
8.56888802e-16
7.96429185e-16
7.41419884e-16
6.91441882e-16
6.45999789e-16
6.04572523e-16
5.66652352e-16
5.31773591e-16
4.99529035e-16
4.6957884e-16
4.41660866e-16
4.15615167e-16
3.91449309e-16
3.69499584e-16
3.50828452e-16
3.38170545e-16
6.35231157e-10
2.21401378e-10
6.87626367e-11
2.23276514e-11
7.87119871e-12
7.53196361e-12
1.33276432e-10
2.0176503e-10
1.83545559e-10
1.32499966e-10
8.51594723e-11
5.35359744e-11
5.26300715e-11
7.78263479e-11
1.06258592e-10
1.20812827e-10
1.1933098e-10
1.08343499e-10
9.43149642e-11
8.33235364e-11
8.23221356e-11
9.33073025e-11
1.13767418e-10
1.40073374e-10
1.68960896e-10
1.96775193e-10
2.19820518e-10
2.34197034e-10
2.41483829e-10
2.48001691e-10
2.60847815e-10
2.85069662e-10
3.22465192e-10
3.71794516e-10
4.29142808e-10
4.88262779e-10
5.41969314e-10
5.86217698e-10
6.22903137e-10
6.58223959e-10
6.99754998e-10
7.53067009e-10
8.21276843e-10
9.0380617e-10
9.98952077e-10
1.10123504e-09
1.20409863e-09
1.30380469e-09
1.40155194e-09
1.50252658e-09
1.61335762e-09
1.73983986e-09
1.88544807e-09
2.05072084e-09
2.23299643e-09
2.42757212e-09
2.63005804e-09
2.83882477e-09
3.05599707e-09
3.28664643e-09
3.53716999e-09
3.81534113e-09
4.12704226e-09
4.47453559e-09
4.85850105e-09
5.27955936e-09
5.74082886e-09
6.24663138e-09
6.80241372e-09
7.41197694e-09
8.07753e-09
8.79899994e-09
9.57530175e-09
1.04077398e-08
1.12996695e-08
1.22636627e-08
1.33147214e-08
1.44746845e-08
1.57657901e-08
1.72108948e-08
1.88314345e-08
2.06469149e-08
2.26755947e-08
2.49367823e-08
2.74509735e-08
3.0246738e-08
3.33589368e-08
3.68321737e-08
4.07234413e-08
4.51031252e-08
5.00550669e-08
5.56766728e-08
6.20783521e-08
6.93869116e-08
7.77482034e-08
8.73300669e-08
9.83292008e-08
1.10983257e-07
1.25583522e-07
1.42482427e-07
1.6210088e-07
1.84953102e-07
2.11666245e-07
2.42992824e-07
2.79789316e-07
3.23208945e-07
3.74796611e-07
4.36519009e-07
5.10854472e-07
6.00897243e-07
7.10477998e-07
8.44749547e-07
1.01046701e-06
1.21623295e-06
1.47279023e-06
1.7933706e-06
2.19381248e-06
2.6914554e-06
3.30203415e-06
4.03418373e-06
4.87826471e-06
5.79485415e-06
6.70448938e-06
7.49207175e-06
8.03481311e-06
8.24578405e-06
8.10769389e-06
7.659763e-06
6.986361e-06
6.184283e-06
5.33816181e-06
4.50694637e-06
3.73740188e-06
3.05166335e-06
2.45234563e-06
1.94315388e-06
1.51484382e-06
1.16595144e-06
8.84660193e-07
6.62197427e-07
4.88715175e-07
3.56114815e-07
2.57299203e-07
1.85253165e-07
1.33456474e-07
9.63333919e-08
6.97031919e-08
5.05597923e-08
3.67644211e-08
2.679773e-08
1.95793638e-08
1.43397221e-08
1.0529265e-08
7.75313384e-09
5.72654471e-09
4.24392293e-09
3.15674228e-09
2.35618772e-09
1.76306954e-09
1.32182688e-09
9.92772996e-10
7.46782486e-10
5.62334517e-10
4.23817091e-10
3.1970711e-10
2.4139877e-10
1.82457179e-10
1.38054217e-10
1.0456964e-10
7.92917099e-11
6.01889872e-11
4.57381227e-11
3.47962059e-11
2.65075457e-11
2.02203656e-11
1.5446418e-11
1.18172834e-11
9.05452188e-12
6.94825206e-12
5.34011485e-12
4.11048754e-12
3.16888817e-12
2.44677201e-12
1.89214335e-12
1.46552328e-12
1.13689608e-12
8.83387239e-13
6.87528728e-13
5.35976896e-13
4.18561547e-13
3.27481477e-13
2.56737097e-13
2.01702778e-13
1.58880254e-13
1.25522461e-13
9.94848305e-14
7.912084e-14
6.31475328e-14
5.06330754e-14
4.08085531e-14
3.31276841e-14
2.70952473e-14
2.23669762e-14
1.86674231e-14
1.57868901e-14
1.35615198e-14
1.18378823e-14
1.05164198e-14
9.49419778e-15
8.70503584e-15
8.09507259e-15
7.6206533e-15
7.24564655e-15
6.94425801e-15
6.69499453e-15
6.48161607e-15
6.291275e-15
6.11075835e-15
5.93713259e-15
5.76873166e-15
5.60220967e-15
5.43411873e-15
5.26297062e-15
5.08809652e-15
4.9089277e-15
4.72552498e-15
4.53819535e-15
4.3477719e-15
4.15575078e-15
3.96404122e-15
3.77467004e-15
3.58950099e-15
3.41005748e-15
3.23734816e-15
3.07183417e-15
2.91362564e-15
2.76306408e-15
2.62223438e-15
2.47982573e-15
2.34398872e-15
2.21345389e-15
2.08748509e-15
1.965795e-15
1.84833432e-15
1.73514748e-15
1.62630035e-15
1.52185162e-15
1.42184894e-15
1.32634041e-15
1.23539432e-15
1.14912074e-15
1.06768528e-15
9.91302635e-16
9.20199305e-16
8.54535812e-16
7.94267829e-16
7.39407214e-16
6.8955942e-16
6.44235995e-16
6.02918517e-16
5.65100987e-16
5.30318526e-16
4.9816428e-16
4.68298661e-16
4.40459681e-16
4.14487405e-16
3.9038954e-16
3.68502118e-16
3.49885356e-16
3.37265476e-16
6.58487802e-08
1.02296463e-08
1.80020196e-09
4.12605305e-10
1.20848042e-10
2.95264431e-10
6.77792775e-09
7.26067113e-09
4.76086259e-09
2.5689051e-09
1.29412148e-09
6.98944251e-10
9.31359798e-10
1.53330047e-09
1.89139393e-09
1.84333783e-09
1.56331889e-09
1.24732088e-09
9.80166278e-10
8.21731834e-10
8.35042367e-10
9.80184075e-10
1.18181304e-09
1.3916543e-09
1.58005422e-09
1.71927009e-09
1.78460409e-09
1.7579531e-09
1.690398e-09
1.65413921e-09
1.6953594e-09
1.8257458e-09
2.03065097e-09
2.28030315e-09
2.53662056e-09
2.75579547e-09
2.90129321e-09
2.97316781e-09
3.00975647e-09
3.05931254e-09
3.15770807e-09
3.31855369e-09
3.53893207e-09
3.80116609e-09
4.08878229e-09
4.36951168e-09
4.6160787e-09
4.82570072e-09
5.01889622e-09
5.22484634e-09
5.46787034e-09
5.76125226e-09
6.10613274e-09
6.49304737e-09
6.90336933e-09
7.31709078e-09
7.72187179e-09
8.1194504e-09
8.52380125e-09
8.95372388e-09
9.42644852e-09
9.96137225e-09
1.056531e-08
1.12325751e-08
1.19567332e-08
1.27356037e-08
1.35747585e-08
1.44817525e-08
1.546454e-08
1.65244822e-08
1.7658594e-08
1.88594417e-08
2.01204907e-08
2.14430639e-08
2.28367472e-08
2.43293237e-08
2.5953664e-08
2.77475177e-08
2.97457496e-08
3.1979706e-08
3.44744485e-08
3.72502114e-08
4.0324364e-08
4.37167514e-08
4.7450589e-08
5.15640002e-08
5.61049946e-08
6.11372051e-08
6.67424648e-08
7.30198112e-08
8.00847299e-08
8.80674123e-08
9.71123485e-08
1.07382062e-07
1.19061796e-07
1.32364373e-07
1.47536143e-07
1.64879381e-07
1.84758438e-07
2.07609889e-07
2.33960861e-07
2.64447531e-07
2.99839766e-07
3.41042902e-07
3.89034917e-07
4.45227948e-07
5.11525152e-07
5.90289394e-07
6.84415863e-07
7.97421785e-07
9.33495648e-07
1.09839643e-06
1.29945766e-06
1.54559695e-06
1.84734849e-06
2.21690543e-06
2.66779316e-06
3.21276124e-06
3.85960296e-06
4.60580782e-06
5.42742136e-06
6.27314447e-06
7.05996237e-06
7.68392917e-06
8.04859639e-06
8.09918164e-06
7.84535818e-06
7.32933885e-06
6.6311056e-06
5.83649737e-06
5.01775484e-06
4.22090796e-06
3.4911847e-06
2.84504393e-06
2.27924493e-06
1.8013602e-06
1.40374462e-06
1.07995351e-06
8.19426072e-07
6.13649682e-07
4.53650098e-07
3.31722537e-07
2.40919247e-07
1.74464694e-07
1.26338301e-07
9.15957631e-08
6.65207322e-08
4.84040711e-08
3.52933874e-08
2.57874535e-08
1.88817396e-08
1.38560011e-08
1.01932534e-08
7.519743e-09
5.56468979e-09
4.13184419e-09
3.0784892e-09
2.30056024e-09
1.72312775e-09
1.2930602e-09
9.71962642e-10
7.31684117e-10
5.51386137e-10
4.15842666e-10
3.13879224e-10
2.37127467e-10
1.79319079e-10
1.35745457e-10
1.0286892e-10
7.80373385e-11
5.92627166e-11
4.50533444e-11
3.42894063e-11
2.613304e-11
1.9941328e-11
1.52391214e-11
1.16631028e-11
8.93968467e-12
6.8625931e-12
5.2761238e-12
4.06260691e-12
3.13300402e-12
2.41983995e-12
1.87190307e-12
1.45028591e-12
1.12540119e-12
8.74704307e-13
6.80970929e-13
5.31022475e-13
4.14806942e-13
3.2462966e-13
2.54582688e-13
2.00087052e-13
1.57667963e-13
1.24606292e-13
9.87923172e-14
7.86129198e-14
6.27824386e-14
5.03711933e-14
4.06237723e-14
3.30033255e-14
2.70242376e-14
2.23331166e-14
1.86593489e-14
1.57975284e-14
1.35862389e-14
1.18747084e-14
1.05599386e-14
9.54094066e-15
8.75332896e-15
8.14438715e-15
7.67022289e-15
7.29421082e-15
6.99107636e-15
6.73973124e-15
6.52417457e-15
6.33149001e-15
6.14885539e-15
5.97277707e-15
5.80119445e-15
5.63161171e-15
5.4605555e-15
5.28645221e-15
5.10878652e-15
4.92708186e-15
4.74138555e-15
4.55198886e-15
4.35971346e-15
4.16605318e-15
3.97287753e-15
3.78214702e-15
3.59567548e-15
3.41495737e-15
3.24099489e-15
3.07426359e-15
2.91489528e-15
2.76323236e-15
2.62262761e-15
2.47836799e-15
2.34192787e-15
2.21094948e-15
2.0846318e-15
1.96269145e-15
1.84507987e-15
1.73183093e-15
1.6229947e-15
1.51861379e-15
1.41872183e-15
1.32335531e-15
1.23257304e-15
1.14647693e-15
1.06522504e-15
9.89024789e-16
9.1809591e-16
8.52593613e-16
7.92479158e-16
7.37744752e-16
6.88006517e-16
6.42782054e-16
6.01555695e-16
5.638231e-16
5.2912023e-16
4.97040575e-16
4.67244696e-16
4.39470764e-16
4.13558996e-16
3.89517246e-16
3.67681228e-16
3.4910928e-16
3.36520783e-16
4.87832733e-30
8.63738233e-30
6.1183053e-30
3.82641036e-30
2.35738243e-30
1.44566868e-30
8.96301438e-31
5.61065776e-31
3.54921363e-31
2.25480093e-31
1.43567471e-31
9.21590888e-32
6.02551016e-32
4.01397712e-32
2.69346895e-32
1.82987678e-32
1.26714335e-32
8.8944304e-33
6.29036282e-33
4.47726839e-33
3.23913616e-33
2.35448729e-33
1.72422808e-33
1.2782623e-33
9.61903589e-34
7.67628189e-34
2.84248924e-33
1.62271588e-31
1.12215755e-29
7.8044011e-28
5.44957328e-26
3.81569348e-24
2.67925665e-22
1.89103891e-20
1.34320512e-18
9.62380542e-17
7.0052847e-15
5.23662725e-13
4.158629e-11
3.59284514e-09
6.05615822e-30
8.13469373e-30
6.81394728e-30
4.63923283e-30
3.26778645e-30
2.26898206e-30
1.53344874e-30
1.02889948e-30
6.92575694e-31
4.71180145e-31
3.23168394e-31
2.22496152e-31
1.54847497e-31
1.08342727e-31
7.62434685e-32
5.38656523e-32
3.84836237e-32
2.77052292e-32
2.00492008e-32
1.45501159e-32
1.06157006e-32
7.77300756e-33
5.69168657e-33
4.19273752e-33
3.0836317e-33
2.30224962e-33
2.05643398e-33
2.80264168e-32
1.86153089e-30
1.29470557e-28
9.02799819e-27
6.3033967e-25
4.40809803e-23
3.08724945e-21
2.1616854e-19
1.51081299e-17
1.05238044e-15
7.2766778e-14
4.95212985e-12
3.18392367e-10
5.06506801e-30
5.62427716e-30
6.68988007e-30
5.50082652e-30
4.2606518e-30
3.62580169e-30
2.56401642e-30
1.85416955e-30
1.37204703e-30
1.03124516e-30
7.81419336e-31
5.91253578e-31
4.44922948e-31
3.32224779e-31
2.46698684e-31
1.82690351e-31
1.35451766e-31
1.00628678e-31
7.47738603e-32
5.55894031e-32
4.12991923e-32
3.06924153e-32
2.27464569e-32
1.68131529e-32
1.24250342e-32
9.20268327e-33
6.89960723e-33
9.93623945e-33
3.43686374e-31
2.35540044e-29
1.62866125e-27
1.12261337e-25
7.70508982e-24
5.24617633e-22
3.52433387e-20
2.32128052e-18
1.48389444e-16
9.0752362e-15
5.13345953e-13
2.52952593e-11
8.91694045e-31
2.66986894e-30
6.0039191e-30
4.34626725e-30
4.04062815e-30
3.82494925e-30
2.80026724e-30
2.20623234e-30
1.78304692e-30
1.44031997e-30
1.15206249e-30
9.10045128e-31
7.10114968e-31
5.48431041e-31
4.20941832e-31
3.21786156e-31
2.45323919e-31
1.86653885e-31
1.41681785e-31
1.07289514e-31
8.1024665e-32
6.09849871e-32
4.57115541e-32
3.41108158e-32
2.53791343e-32
1.8844968e-32
1.40086422e-32
1.13109181e-32
7.12045854e-32