/*--------------------------------*- C++ -*----------------------------------*\
  =========                 |
  \\      /  F ield         | OpenFOAM: The Open Source CFD Toolbox
   \\    /   O peration     | Website:  https://openfoam.org
    \\  /    A nd           | Version:  6
     \\/     M anipulation  |
\*---------------------------------------------------------------------------*/
FoamFile
{
    version     2.0;
    format      ascii;
    class       volScalarField;
    location    "25000";
    object      C2H4;
}
// * * * * * * * * * * * * * * * * * * * * * * * * * * * * * * * * * * * * * //

dimensions      [0 0 0 0 0 0 0];

internalField   nonuniform List<scalar> 
44870
(
1.59144385e-55
3.5776253e-55
5.69226484e-55
4.83898313e-55
6.63886197e-55
7.52139494e-55
1.02442378e-54
1.3055237e-54
1.17972986e-54
1.23601122e-54
1.44705294e-54
1.9103871e-54
1.5774979e-54
1.88388586e-54
1.90746555e-54
2.04702051e-54
1.5730904e-54
1.82538969e-54
1.78817002e-54
2.10549668e-54
2.06923322e-54
1.08801398e-53
1.43009526e-51
2.44039046e-49
4.23365554e-47
7.45066167e-45
1.3291194e-42
2.40240929e-40
4.39529082e-38
8.13518524e-36
1.52077048e-33
2.86866705e-31
5.44407773e-29
1.03722564e-26
1.97166345e-24
3.71666131e-22
6.84380709e-20
1.20682989e-17
1.91941336e-15
2.58535409e-13
9.41462424e-56
1.68729103e-55
4.10827074e-55
4.1486983e-55
8.68966586e-55
8.71001649e-55
9.39746896e-55
9.40995388e-55
9.98343367e-55
1.12610627e-54
1.41016849e-54
1.44439947e-54
1.69506908e-54
1.35811176e-54
1.53458493e-54
1.54209736e-54
1.70812934e-54
1.3572849e-54
1.35492759e-54
1.55823987e-54
1.67060422e-54
1.9517594e-53
3.26868238e-51
6.10913183e-49
1.1564385e-46
2.21764427e-44
4.29924284e-42
8.43845146e-40
1.67258558e-37
3.35606339e-35
6.79322392e-33
1.39206353e-30
2.87382517e-28
6.00649379e-26
1.26132594e-23
2.67517449e-21
5.64970099e-19
1.19103131e-16
2.34786233e-14
4.40544633e-12
3.21949404e-55
9.54449576e-55
1.35218396e-54
1.11588246e-54
1.31286909e-54
1.2275642e-54
1.4558425e-54
1.52708056e-54
1.65374879e-54
1.32992645e-54
1.82221978e-54
2.13140683e-54
1.7506662e-54
1.83776757e-54
1.69240931e-54
1.90889478e-54
2.10655394e-54
1.50938079e-54
1.77299579e-54
1.65269671e-54
2.63093557e-54
9.93160404e-53
2.00791547e-50
4.17790741e-48
8.72961406e-46
1.83776218e-43
3.88220918e-41
8.27045829e-39
1.76674954e-36
3.81208268e-34
8.24065018e-32
1.80274076e-29
3.94569238e-27
8.76392682e-25
1.94598976e-22
4.39774823e-20
9.92294504e-18
2.2970906e-15
5.10389036e-13
1.1653469e-10
3.18551295e-55
5.29620992e-55
7.48429123e-55
9.45004128e-55
1.104164e-54
6.98538573e-55
5.63325751e-55
6.39453088e-55
9.42585288e-55
4.81878715e-55
9.22644991e-55
1.84998944e-54
8.48352932e-55
1.31935771e-54
1.04921705e-54
1.66145112e-54
1.89764527e-54
2.15499666e-54
2.89181497e-54
2.64716638e-54
1.07460264e-53
1.80748564e-51
3.98957863e-49
8.80488724e-47
1.94014053e-44
4.27548814e-42
9.41576814e-40
2.07632531e-37
4.57831834e-35
1.01247726e-32
2.23954193e-30
4.97580585e-28
1.10573392e-25
2.47197686e-23
5.52698436e-21
1.24255067e-18
2.78608136e-16
6.25595466e-14
1.35934513e-11
2.87298835e-09
7.06296343e-55
9.44433282e-55
7.79126411e-55
3.80317068e-55
2.58640212e-55
4.95434863e-55
1.22616375e-54
1.40673405e-54
2.46076121e-54
2.31681783e-54
2.06548916e-54
1.40788746e-54
1.25040271e-54
1.05621346e-54
7.13072554e-55
7.4170328e-55
1.09007833e-54
1.01261137e-54
1.37060741e-54
1.98601848e-54
1.77380946e-52
3.94509191e-50
8.75552565e-48
1.93308214e-45
4.24861191e-43
9.30169848e-41
2.02967498e-38
4.4154444e-36
9.58241011e-34
2.07496915e-31
4.4853063e-29
9.68038997e-27
2.08676623e-24
4.49341687e-22
9.66798371e-20
2.07855107e-17
4.46644308e-15
9.5921341e-13
2.05906333e-10
4.44165098e-08
8.2526284e-12
3.45573699e-11
9.0219596e-11
1.94207663e-10
3.74596606e-10
6.69757091e-10
1.12926178e-09
1.81800781e-09
2.81570479e-09
4.23036651e-09
6.19223499e-09
8.88220239e-09
1.25138157e-08
1.73811758e-08
2.38384204e-08
3.2332047e-08
4.34347236e-08
5.78103726e-08
7.63703642e-08
1.00111577e-07
1.30387542e-07
1.687523e-07
2.17156322e-07
2.77992964e-07
3.54143949e-07
4.49215185e-07
5.67107573e-07
7.13605422e-07
8.93881328e-07
1.11645395e-06
1.38940937e-06
1.72348665e-06
2.13132497e-06
2.62605978e-06
3.22589065e-06
3.94768269e-06
4.81561046e-06
5.85175923e-06
7.08632563e-06
8.54885507e-06
1.02767169e-05
1.23095668e-05
1.46923183e-05
1.74701145e-05
2.06997937e-05
2.44287059e-05
2.87083629e-05
3.3591085e-05
3.9130197e-05
4.5380976e-05
5.2399282e-05
6.02428364e-05
6.89673741e-05
7.8628071e-05
8.92734485e-05
0.000100946505
0.000113678384
0.000127489945
0.000142389053
0.000158373068
0.000175430309
0.000193540734
0.000212681532
0.000232824422
0.000253948837
0.000276032396
0.0002990695
0.000323053891
0.000347994303
0.000373888864
0.000400735579
0.000428516797
0.000457195457
0.000486738786
0.00051707434
0.000548188555
0.000579965561
0.000612389597
0.00064541788
0.000679022077
0.000713175991
0.000747859063
0.00078306158
0.000818773913
0.000854990214
0.000891698209
0.000928895512
0.000966563582
0.00100468902
0.00104326133
0.00108226799
0.00112170615
0.00116157503
0.00120188557
0.0012426626
0.00128394776
0.00132580003
0.00136829866
0.00141154212
0.00145565388
0.00150076531
0.00154703239
0.00159462102
0.00164371994
0.00169453799
0.00174732819
0.00180238899
0.00186006462
0.00192077956
0.00198502899
0.0020534094
0.00212660849
0.00220539034
0.00229055384
0.00238282461
0.0024826655
0.002589869
0.00270288265
0.00281779487
0.00292699329
0.00301769488
0.00307140387
0.00306589754
0.0029812017
0.00280850645
0.00255678962
0.00225127459
0.0019240226
0.00160365339
0.00130971391
0.00105225438
0.00083408007
0.00065357633
0.000506865551
0.000389188397
0.00029580482
0.000222353108
0.000165068433
0.000120837364
8.70877365e-05
6.21299865e-05
4.40329852e-05
3.11597043e-05
2.21208007e-05
1.57835226e-05
1.13126473e-05
8.13997205e-06
5.87848107e-06
4.26920175e-06
3.10796827e-06
2.26920277e-06
1.6618386e-06
1.22130559e-06
9.00737856e-07
6.66633144e-07
4.94979047e-07
3.68048926e-07
2.73991881e-07
2.04165176e-07
1.52237777e-07
1.13582809e-07
8.48687538e-08
6.3504199e-08
4.75869886e-08
3.57132617e-08
2.68442656e-08
2.02102993e-08
1.52406136e-08
1.1511749e-08
8.70929472e-09
6.599591e-09
5.00878146e-09
3.80733955e-09
2.89865503e-09
2.2102328e-09
1.68764448e-09
1.29048581e-09
9.88277024e-10
7.58019623e-10
5.82379002e-10
4.48304902e-10
3.45816493e-10
2.67356871e-10
2.07206937e-10
1.61032445e-10
1.25539529e-10
9.82206969e-11
7.71696057e-11
6.09381695e-11
4.84210009e-11
3.87643168e-11
3.13209568e-11
2.55981788e-11
2.12217385e-11
1.78880552e-11
1.53618424e-11
1.34663363e-11
1.20736939e-11
1.10849984e-11
1.04153937e-11
1.00070197e-11
9.81184745e-12
9.80576382e-12
9.95592787e-12
1.02506827e-11
1.06743576e-11
1.12254621e-11
1.18955029e-11
1.26571959e-11
1.35193967e-11
1.44670453e-11
1.54987816e-11
1.65961794e-11
1.77569414e-11
1.89818593e-11
2.02688167e-11
2.1603095e-11
2.29239812e-11
2.43473744e-11
2.59217446e-11
2.75889763e-11
2.93658854e-11
3.12516808e-11
3.32446087e-11
3.53250955e-11
3.74710607e-11
3.96593858e-11
4.18761375e-11
4.41311415e-11
4.64537459e-11
4.88855259e-11
5.14739516e-11
5.42634859e-11
5.72856594e-11
6.05547134e-11
6.40724786e-11
6.7846233e-11
7.18702494e-11
7.59358119e-11
8.0073624e-11
8.42623336e-11
8.84526214e-11
9.2596669e-11
9.66557179e-11
1.0059982e-10
1.04406883e-10
1.08062747e-10
1.11562159e-10
1.14910209e-10
1.18123806e-10
1.21232665e-10
1.24278974e-10
1.27314626e-10
1.30395217e-10
1.33573814e-10
1.3691753e-10
1.40228217e-10
1.43607317e-10
1.46981648e-10
1.50274921e-10
1.53420426e-10
1.56366693e-10
1.59080781e-10
1.61547822e-10
1.6376752e-10
1.65748538e-10
1.67500429e-10
1.6902038e-10
1.70266373e-10
1.71095562e-10
1.70272691e-10
6.13459315e-10
1.3956538e-09
2.717522e-09
4.85526571e-09
8.14303521e-09
1.29632442e-08
1.98182991e-08
2.93150806e-08
4.23036042e-08
5.97976728e-08
8.32156531e-08
1.14186124e-07
1.54906744e-07
2.07914094e-07
2.76281895e-07
3.63792053e-07
4.74657905e-07
6.14376081e-07
7.88636864e-07
1.00475793e-06
1.27075003e-06
1.59574013e-06
1.99086751e-06
2.46685374e-06
3.03835785e-06
3.71835383e-06
4.52506262e-06
5.47392045e-06
6.58605858e-06
7.88017233e-06
9.37822502e-06
1.11005486e-05
1.30685472e-05
1.53037827e-05
1.78264517e-05
2.06595283e-05
2.38221779e-05
2.73392432e-05
3.12295234e-05
3.55184499e-05
4.02235846e-05
4.53666387e-05
5.09576073e-05
5.70233801e-05
6.35711583e-05
7.06150089e-05
7.81710456e-05
8.6257776e-05
9.48965463e-05
0.000104110832
0.000113926981
0.000124372859
0.000135478948
0.000147276945
0.000159800666
0.000173083339
0.000187157535
0.00020205181
0.000217790156
0.000234389506
0.000251860554
0.000270207498
0.000289430891
0.000309531281
0.000330505883
0.000352362395
0.000375107047
0.000398753781
0.000423308952
0.000448777503
0.000475151613
0.000502409266
0.000530527254
0.000559453725
0.000589175752
0.000619597403
0.000650703945
0.000682455615
0.000714825993
0.000747786057
0.000781316585
0.000815407603
0.000850048204
0.000885230353
0.000920942662
0.000957179143
0.000993923438
0.00103116111
0.00106888344
0.00110707843
0.00114574249
0.00118487918
0.00122450268
0.00126464108
0.00130533838
0.0013466552
0.0013886715
0.00143148549
0.00147521993
0.00152000275
0.0015659864
0.00161333349
0.00166222914
0.00171287915
0.00176553531
0.00182049126
0.00187808639
0.00193873609
0.00200292192
0.0020712173
0.00214427763
0.00222281685
0.00230755027
0.00239908166
0.00249770651
0.00260297535
0.00271301363
0.00282353031
0.0029265579
0.00300911671
0.00305295387
0.00303681397
0.00294244701
0.00276299911
0.00250871466
0.0022047766
0.0018820986
0.00156779671
0.00128019893
0.00102860477
0.000815471961
0.00063912353
0.000495749349
0.000380695948
0.000289358663
0.000217488046
0.000161422505
0.0001181409
8.52114311e-05
6.0864391e-05
4.32039571e-05
3.06268419e-05
2.17799639e-05
1.5561761e-05
1.11658976e-05
8.04160996e-06
5.81177812e-06
4.22219027e-06
3.07521809e-06
2.24630401e-06
1.64573639e-06
1.21001403e-06
8.92794381e-07
6.61023923e-07
4.91028176e-07
3.65325139e-07
2.72100932e-07
2.02843925e-07
1.51307571e-07
1.12919071e-07
8.4386695e-08
6.31531826e-08
4.73311382e-08
3.55267189e-08
2.67082214e-08
2.01110309e-08
1.51681127e-08
1.14587292e-08
8.6704597e-09
6.57109554e-09
4.98783417e-09
3.79191419e-09
2.88728754e-09
2.2018388e-09
1.6814166e-09
1.2858684e-09
9.84852164e-10
7.55477786e-10
5.80492263e-10
4.46905106e-10
3.44778858e-10
2.66588539e-10
2.06639199e-10
1.60615012e-10
1.25235203e-10
9.80010017e-11
7.70128981e-11
6.08292089e-11
4.83493833e-11
3.8720693e-11
3.12994088e-11
2.55929709e-11
2.12298349e-11
1.79074194e-11
1.53899356e-11
1.35009896e-11
1.21140143e-11
1.11312763e-11
1.04668758e-11
1.0063309e-11
9.87246245e-12
9.87125921e-12
1.00264269e-11
1.0325236e-11
1.07535903e-11
1.13100568e-11
1.19860163e-11
1.2752384e-11
1.36187747e-11
1.45722513e-11
1.56106461e-11
1.67149926e-11
1.7880628e-11
1.91100768e-11
2.04032059e-11
2.17449205e-11
2.3067635e-11
2.44968745e-11
2.60781891e-11
2.77481894e-11
2.95284622e-11
3.14166497e-11
3.34112201e-11
3.54937663e-11
3.7642304e-11
3.98335059e-11
4.20535345e-11
4.43126228e-11
4.66402403e-11
4.90774854e-11
5.16710229e-11
5.4464682e-11
5.7489609e-11
6.07597637e-11
6.42768179e-11
6.80483484e-11
7.20762837e-11
7.6132136e-11
8.02629117e-11
8.44455943e-11
8.86297557e-11
9.27676102e-11
9.68207254e-11
1.00759401e-10
1.04561673e-10
1.08213423e-10
1.11709386e-10
1.15054592e-10
1.18265845e-10
1.21372696e-10
1.24417102e-10
1.27450651e-10
1.30528549e-10
1.33703355e-10
1.37047233e-10
1.40345295e-10
1.43718678e-10
1.47085815e-10
1.50371374e-10
1.5350926e-10
1.56448364e-10
1.59155953e-10
1.61617263e-10
1.63832018e-10
1.65808844e-10
1.67557233e-10
1.69074326e-10
1.70318131e-10
1.71146352e-10
6.40461197e-09
2.01567151e-08
4.10533309e-08
7.33540413e-08
1.20664234e-07
1.86264153e-07
2.73793383e-07
3.88196208e-07
5.35796061e-07
7.25245382e-07
9.66586048e-07
1.27204971e-06
1.65426808e-06
2.12747529e-06
2.70577797e-06
3.40459915e-06
4.24012478e-06
5.22917782e-06
6.39057886e-06
7.7429283e-06
9.30638076e-06
1.1100113e-05
1.31429547e-05
1.54530518e-05
1.80462635e-05
2.09413268e-05
2.41507915e-05
2.76943659e-05
3.15793593e-05
3.58209079e-05
4.04257773e-05
4.53989496e-05
5.07396405e-05
5.64465992e-05
6.25146932e-05
6.89406135e-05
7.57213679e-05
8.28550125e-05
9.03427573e-05
9.81803805e-05
0.000106367603
0.000114895039
0.000123759683
0.000132944046
0.000142459209
0.000152291345
0.000162439088
0.000172904897
0.000183694276
0.000194815637
0.00020627873
0.000218097402
0.000230288329
0.000242872702
0.000255875924
0.000269327713
0.000283260161
0.000297706585
0.000312698807
0.000328265486
0.000344430944
0.000361216632
0.000378639815
0.000396721647
0.00041547805
0.000434928125
0.000455100233
0.000476018883
0.000497711413
0.000520200391
0.000543505253
0.000567635505
0.000592590923
0.000618364385
0.000644931127
0.000672281831
0.000700352915
0.000729133042
0.000758592258
0.000788708874
0.000819461477
0.000850836366
0.000882825154
0.000915420257
0.000948613606
0.000982397265
0.00101676105
0.0010516949
0.00108718478
0.00112322103
0.00115979833
0.00119691799
0.00123459026
0.00127283704
0.00131169398
0.00135121055
0.00139145116
0.00143249755
0.00147444745
0.00151742075
0.00156153916
0.00160694703
0.00165379966
0.00170227391
0.00175256935
0.00180493302
0.00185964711
0.00191703904
0.00197749774
0.00204146963
0.00210947554
0.00218209281
0.00225990849
0.00234344216
0.0024330175
0.00252855484
0.00262906687
0.00273198539
0.0028322401
0.00292120492
0.00298564789
0.00300808008
0.00296954047
0.00285550882
0.00266304775
0.00240466729
0.00210512265
0.00179277623
0.00149164462
0.00121759472
0.000978449026
0.000775983674
0.000608426877
0.000472119907
0.000362626506
0.000275635301
0.000207125909
0.000153656473
0.000112399542
8.12545801e-05
5.8202439e-05
4.14533629e-05
2.95011098e-05
2.1055954e-05
1.50882159e-05
1.08514363e-05
7.83030867e-06
5.66824055e-06
4.12118342e-06
3.00483101e-06
2.19701285e-06
1.61101548e-06
1.18565832e-06
8.75643015e-07
6.48899011e-07
4.82450858e-07
3.59402955e-07
2.67986117e-07
1.99966884e-07
1.49280725e-07
1.11476845e-07
8.33368283e-08
6.23882835e-08
4.67734119e-08
3.51199676e-08
2.6411514e-08
1.98944819e-08
1.50099193e-08
1.13430149e-08
8.585683e-09
6.50887519e-09
4.94208475e-09
3.7582172e-09
2.86245215e-09
2.1834977e-09
1.66780033e-09
1.27577456e-09
9.77364639e-10
7.49920417e-10
5.76367001e-10
4.43844059e-10
3.42509371e-10
2.64908523e-10
2.05398744e-10
1.59703067e-10
1.24569548e-10
9.7520449e-11
7.66717074e-11
6.05933195e-11
4.81937973e-11
3.86285585e-11
3.12530255e-11
2.55841901e-11
2.12498627e-11
1.79503855e-11
1.54513454e-11
1.35781009e-11
1.22046709e-11
1.12342442e-11
1.05807098e-11
1.01875785e-11
1.00068214e-11
1.00162402e-11
1.01822745e-11
1.04907771e-11
1.09292989e-11
1.14969369e-11
1.21849718e-11
1.29625231e-11
1.38397152e-11
1.48053974e-11
1.5856959e-11
1.69757694e-11
1.81538982e-11
1.93948167e-11
2.07004279e-11
2.20569578e-11
2.34117022e-11
2.48481031e-11
2.64238533e-11
2.8099766e-11
2.98864742e-11
3.17803954e-11
3.37796006e-11
3.58667571e-11
3.80202013e-11
4.0217214e-11
4.2444437e-11
4.47123713e-11
4.70504849e-11
4.94990907e-11
5.21034851e-11
5.4906084e-11
5.79370135e-11
6.1209556e-11
6.47250696e-11
6.84920754e-11
7.25290006e-11
7.65628512e-11
8.0678567e-11
8.48482821e-11
8.90191107e-11
9.3143431e-11
9.71835562e-11
1.01110338e-10
1.04902087e-10
1.08544779e-10
1.12033115e-10
1.15371997e-10
1.18577999e-10
1.21680316e-10
1.24720405e-10
1.27749202e-10
1.30821074e-10
1.33987312e-10
1.37302787e-10
1.40601194e-10
1.43963168e-10
1.4731455e-10
1.50583254e-10
1.53704489e-10
1.56627926e-10
1.5932129e-10
1.61770037e-10
1.63973935e-10
1.65941538e-10
1.67682215e-10
1.69192998e-10
1.7043194e-10
1.71257555e-10
2.57287356e-07
6.41098703e-07
1.15053996e-06
1.79135932e-06
2.55883263e-06
3.4464082e-06
4.45958859e-06
5.63339729e-06
7.02063268e-06
8.68069011e-06
1.06634374e-05
1.30044005e-05
1.57152351e-05
1.87976159e-05
2.22439349e-05
2.60579827e-05
3.02457793e-05
3.48246779e-05
3.98159221e-05
4.52314896e-05
5.10744608e-05
5.7328533e-05
6.39746388e-05
7.09825131e-05
7.8337583e-05
8.6026945e-05
9.40520225e-05
0.000102423044
0.000111126387
0.000120165055
0.000129519053
0.000139157907
0.000149046315
0.000159152821
0.000169453256
0.000179934561
0.000190590593
0.000201421001
0.000212422602
0.000223584688
0.000234894325
0.00024633146
0.000257882394
0.000269522924
0.000281265466
0.000293098673
0.000305029404
0.000317069898
0.000329234776
0.000341538082
0.000353994354
0.000366620614
0.000379436494
0.000392467012
0.00040574017
0.000419286741
0.000433136506
0.000447316616
0.000461849895
0.00047675372
0.000492044373
0.000507738197
0.00052385707
0.000540428384
0.00055748435
0.000575061948
0.00059320413
0.000611952012
0.0006313478
0.000651429194
0.000672229343
0.000693771798
0.000716070942
0.000739129826
0.000762939008
0.000787490653
0.000812747541
0.000838703058
0.000865340528
0.000892647652
0.000920621707
0.000949259013
0.000978557051
0.00100851647
0.00103913192
0.0010704002
0.00110231133
0.00113485642
0.00116802719
0.00120181927
0.00123623612
0.00127128957
0.00130700109
0.00134340455
0.00138054626
0.00141848287
0.00145728339
0.00149703155
0.00153782284
0.00157976776
0.00162298088
0.00166759336
0.00171374802
0.00176160742
0.00181136296
0.00186324659
0.00191752248
0.00197449095
0.00203448725
0.00209788842
0.00216512787
0.00223663448
0.00231277047
0.00239372401
0.0024793614
0.00256902622
0.00266090997
0.00275145628
0.00283459487
0.00290106794
0.00293774418
0.00292885948
0.00285924694
0.00271971949
0.0025121965
0.00225136551
0.00196062719
0.0016645068
0.00138284709
0.00112834114
0.000906958382
0.000719635967
0.00056456318
0.000438312583
0.000336733747
0.000255955531
0.000192257298
0.000142515379
0.00010442664
7.57253377e-05
5.44602509e-05
3.89904711e-05
2.79073667e-05
2.00202728e-05
1.44051356e-05
1.03951846e-05
7.5224168e-06
5.45846574e-06
3.9739356e-06
2.90219611e-06
2.12492303e-06
1.56007584e-06
1.14991871e-06
8.50427202e-07
6.31038367e-07
4.69785115e-07
3.50590576e-07
2.61854774e-07
1.95674798e-07
1.46253172e-07
1.09321665e-07
8.17693595e-08
6.12454818e-08
4.59396315e-08
3.45116198e-08
2.596758e-08
1.9570356e-08
1.47730426e-08
1.11696725e-08
8.45863059e-09
6.41558721e-09
4.87346312e-09
3.70765281e-09
2.82517738e-09
2.15587297e-09
1.64733853e-09
1.26060881e-09
9.6611272e-10
7.41567666e-10
5.70165894e-10
4.39241985e-10
3.39097087e-10
2.62383223e-10
2.03535183e-10
1.58333206e-10
1.23569302e-10
9.6799087e-11
7.61616651e-11
6.0242299e-11
4.79622083e-11
3.84893186e-11
3.11867874e-11
2.55756849e-11
2.12841688e-11
1.80176047e-11
1.55460921e-11
1.36979602e-11
1.23457986e-11
1.13931426e-11
1.07560592e-11
1.03785724e-11
1.02138451e-11
1.02388766e-11
1.04213456e-11
1.07460141e-11
1.11995798e-11
1.17838518e-11
1.24884983e-11
1.32841514e-11
1.41799343e-11
1.51633274e-11
1.62336709e-11
1.73725335e-11
1.85720222e-11
1.98323959e-11
2.11558343e-11
2.25319478e-11
2.39237171e-11
2.53816008e-11
2.69543886e-11
2.86379499e-11
3.04331634e-11
3.23356733e-11
3.43432892e-11
3.6437553e-11
3.85974896e-11
4.08023194e-11
4.30399056e-11
4.53208204e-11
4.76739758e-11
5.01388041e-11
5.27589681e-11
5.55748105e-11
5.86146494e-11
6.1890634e-11
6.54036855e-11
6.91636329e-11
7.32167971e-11
7.72139095e-11
8.13077957e-11
8.54584016e-11
8.96092001e-11
9.37130875e-11
9.77335841e-11
1.01642379e-10
1.05418196e-10
1.09047135e-10
1.12523849e-10
1.15853045e-10
1.19050948e-10
1.22146223e-10
1.25179585e-10
1.28200998e-10
1.31263593e-10
1.34416126e-10
1.37692186e-10
1.4099036e-10
1.44333332e-10
1.47660749e-10
1.50904035e-10
1.54000188e-10
1.5690002e-10
1.59571939e-10
1.62001724e-10
1.64189211e-10
1.66142859e-10
1.67871851e-10
1.69373058e-10
1.70604583e-10
1.71425872e-10
9.98646141e-06
1.56564477e-05
2.06812738e-05
2.52129649e-05
2.94163661e-05
3.32428405e-05
3.7170649e-05
4.20476049e-05
4.83735301e-05
5.62063095e-05
6.52832795e-05
7.51644389e-05
8.53620808e-05
9.55818611e-05
0.000105776657
0.000116102971
0.000126802726
0.000138073707
0.000149974711
0.000162394913
0.000175116689
0.000187901128
0.000200586939
0.00021312123
0.000225579647
0.000238088787
0.000250822582
0.000263828672
0.0002771077
0.000290549647
0.000303993376
0.000317281152
0.000330311376
0.000343059693
0.000355566303
0.000367909727
0.000380165966
0.000392386125
0.0004045758
0.000416708909
0.000428746457
0.000440656129
0.000452428595
0.000464064348
0.000475615886
0.000487119551
0.000498622474
0.000510160251
0.000521753353
0.00053341251
0.000545147522
0.000556975852
0.000568922457
0.000581020801
0.000593302085
0.000605792938
0.000618507327
0.000631449106
0.000644615313
0.000658000332
0.000671608058
0.000685454024
0.000699576165
0.000714013461
0.00072882303
0.000744055563
0.000759760368
0.00077598826
0.000792790351
0.00081021021
0.000828286084
0.000847043286
0.000866495397
0.000886641468
0.000907471105
0.000928973989
0.000951132368
0.000973947607
0.000997421046
0.00102156226
0.00104638722
0.0010719099
0.00109813959
0.00112508314
0.00115273773
0.00118110399
0.00121017233
0.00123993653
0.00127039705
0.00130156096
0.00133344577
0.00136607882
0.00139949731
0.00143374957
0.00146889281
0.00150499007
0.00154211255
0.00158034519
0.00161976999
0.00166048327
0.00170259046
0.00174620079
0.00179143587
0.00183843561
0.00188737839
0.00193846853
0.00199193451
0.00204801788
0.00210696071
0.0021690156
0.00223447399
0.00230351715
0.0023761484
0.00245205347
0.00253044603
0.00260993173
0.00268763539
0.00275888556
0.00281671334
0.00285178734
0.00285193222
0.00280450994
0.00269956457
0.00253403281
0.00231427225
0.00205599201
0.001780009
0.00150601456
0.00124921609
0.00101897304
0.000819365824
0.00065047843
0.000510634305
0.000396691877
0.000304789787
0.000231667384
0.000173898176
0.000129131204
9.48868888e-05
6.90884544e-05
4.99692475e-05
3.6024273e-05
2.59668565e-05
1.8742046e-05
1.35534779e-05
9.82207492e-06
7.13347544e-06
5.19240966e-06
3.78924578e-06
2.77247128e-06
2.03335841e-06
1.49507909e-06
1.10435318e-06
8.18176005e-07
6.08138138e-07
4.53503048e-07
3.39122455e-07
2.5387155e-07
1.90076712e-07
1.42296823e-07
1.06501328e-07
7.97222926e-08
5.97511242e-08
4.48484482e-08
3.37149987e-08
2.53859536e-08
1.914547e-08
1.44623513e-08
1.09421775e-08
8.29178485e-09
6.29300676e-09
4.78324104e-09
3.64113311e-09
2.77612734e-09
2.11946781e-09
1.62038486e-09
1.24062315e-09
9.51280074e-10
7.30554241e-10
5.61988231e-10
4.33172162e-10
3.34596137e-10
2.59053003e-10
2.01079082e-10
1.56528663e-10
1.22251923e-10
9.58502406e-11
7.54935422e-11
5.97851868e-11
4.76618958e-11
3.83096184e-11
3.11055092e-11
2.55719521e-11
2.13367874e-11
1.81125275e-11
1.56771254e-11
1.38634244e-11
1.25401205e-11
1.16103485e-11
1.09958736e-11
1.06392256e-11
1.04964346e-11
1.05411925e-11
1.07453462e-11
1.10939831e-11
1.15676217e-11
1.21738548e-11
1.28978632e-11
1.37186005e-11
1.4642211e-11
1.56488748e-11
1.67429743e-11
1.79054876e-11
1.91358335e-11
2.04250104e-11
2.17716735e-11
2.31712698e-11
2.4596035e-11
2.60846098e-11
2.76700426e-11
2.93644932e-11
3.11698646e-11
3.30834638e-11
3.51037611e-11
3.72077955e-11
3.93754868e-11
4.15895873e-11
4.38403018e-11
4.61378929e-11
4.85100056e-11
5.09951169e-11
5.36352034e-11
5.64679938e-11
5.95191426e-11
6.27992003e-11
6.63085431e-11
7.00578709e-11
7.41390358e-11
7.80789984e-11
8.21460805e-11
8.62720808e-11
9.03963557e-11
9.44730456e-11
9.84674105e-11
1.02352251e-10
1.06106815e-10
1.0971736e-10
1.13178462e-10
1.16494574e-10
1.19681463e-10
1.22767097e-10
1.25791215e-10
1.28802523e-10
1.3185257e-10
1.34987386e-10
1.38229297e-10
1.41510616e-10
1.4482638e-10
1.48121715e-10
1.51331285e-10
1.54394213e-10
1.57262768e-10
1.59906254e-10
1.6231087e-10
1.64476543e-10
1.66411621e-10
1.68125048e-10
1.6961348e-10
1.7083507e-10
1.71650383e-10
0.000236670605
0.000190474205
0.000163376394
0.000146126605
0.000135066494
0.000125913524
0.000127350354
0.00014373707
0.000168328529
0.000194410894
0.00021788653
0.000236627039
0.000250227283
0.000260627607
0.000270613698
0.000282302397
0.000296575584
0.00031314605
0.000330763021
0.000347874899
0.000363353647
0.000376860761
0.000388820727
0.000400075079
0.000411556605
0.000423939146
0.000437484166
0.000451856491
0.000466425024
0.000480509071
0.000493633247
0.000505640185
0.000516686613
0.000527123322
0.000537340642
0.000547632857
0.000558111753
0.000568722007
0.000579307855
0.000589711535
0.000599836738
0.000609670763
0.000619276531
0.000628744013
0.000638218947
0.000647798713
0.00065752962
0.000667401944
0.000677381243
0.000687439573
0.00069757493
0.000707815653
0.000718206138
0.000728794336
0.000739605585
0.000750643699
0.000761884928
0.000773296351
0.000784849102
0.000796527797
0.000808344287
0.000820342802
0.000832595767
0.000845163009
0.000858108856
0.000871483254
0.000885332829
0.000899703588
0.000914645298
0.000930195651
0.000946386657
0.000963229763
0.000980723437
0.000998851857
0.00101759571
0.00103694508
0.00105689685
0.00107746555
0.00109867265
0.00112054952
0.00114312718
0.00116643023
0.0011904734
0.00121526361
0.0012407971
0.0012670731
0.0012940828
0.00132182545
0.00135031067
0.0013795577
0.00140959789
0.00144047191
0.00147222935
0.0015049266
0.00153862567
0.00157339134
0.0016092908
0.00164640475
0.00168479692
0.00172455509
0.00176576542
0.00180851724
0.00185290933
0.00189905767
0.00194712643
0.00199729047
0.00204972731
0.00210460472
0.00216205967
0.00222220994
0.00228521272
0.00235098609
0.00241918775
0.00248904844
0.00255924184
0.00262788773
0.00269132009
0.002744288
0.00277963679
0.00278881874
0.00276103685
0.00268667976
0.0025596637
0.0023806236
0.00215763578
0.00190596437
0.00164407671
0.00138812744
0.00115040395
0.00093827282
0.000754726313
0.000599312227
0.000470667675
0.00036581965
0.000281031221
0.000213620557
0.000160576496
0.000119470248
8.80216912e-05
6.43248576e-05
4.67437026e-05
3.38751054e-05
2.45380725e-05
1.77867944e-05
1.29099133e-05
9.38531873e-06
6.83509019e-06
4.98725259e-06
3.64691608e-06
2.67288536e-06
1.96328212e-06
1.44549668e-06
1.06903212e-06
7.93039927e-07
5.90234226e-07
4.40736092e-07
3.30048997e-07
2.47520351e-07
1.85611229e-07
1.39132477e-07
1.04240742e-07
7.80868732e-08
5.85541523e-08
4.39735639e-08
3.30758532e-08
2.49190031e-08
1.88041227e-08
1.4212562e-08
1.07591338e-08
8.15743363e-09
6.19422262e-09
4.71047847e-09
3.58744499e-09
2.7365342e-09
2.09006598e-09
1.59859388e-09
1.22445714e-09
9.39277398e-10
7.21639232e-10
5.55367562e-10
4.28257994e-10
3.30952169e-10
2.56356513e-10
1.99090689e-10
1.55069749e-10
1.21189421e-10
9.50861282e-11
7.49556807e-11
5.94189959e-11
4.74253952e-11
3.81721833e-11
3.10463316e-11
2.55739929e-11
2.13858231e-11
1.81980663e-11
1.57923182e-11
1.40047519e-11
1.27044374e-11
1.17945446e-11
1.11993134e-11
1.08602846e-11
1.07344466e-11
1.07959496e-11
1.10177945e-11
1.13854186e-11
1.18767486e-11
1.25013458e-11
1.32423031e-11
1.40817114e-11
1.50265493e-11
1.60538391e-11
1.71685516e-11
1.8351359e-11
1.96040136e-11
2.09156499e-11
2.22830931e-11
2.37028027e-11
2.51504998e-11
2.66610619e-11
2.8260908e-11
2.99667459e-11
3.17816561e-11
3.37045139e-11
3.57339697e-11
3.7846171e-11
4.00210286e-11
4.22430978e-11
4.45043418e-11
4.68151904e-11
4.92025696e-11
5.17038542e-11
5.43594475e-11
5.72049712e-11
6.02642562e-11
6.35467351e-11
6.70522601e-11
7.07907796e-11
7.49031368e-11
7.87850115e-11
8.28333957e-11
8.69399103e-11
9.10424679e-11
9.50968253e-11
9.90697786e-11
1.0293501e-10
1.06672163e-10
1.10267607e-10
1.13715852e-10
1.17021135e-10
1.20198847e-10
1.23276391e-10
1.26292715e-10
1.29295512e-10
1.3233509e-10
1.35455621e-10
1.38675182e-10
1.41937896e-10
1.45230324e-10
1.48499247e-10
1.51681306e-10
1.5471719e-10
1.57560303e-10
1.60180655e-10
1.62564793e-10
1.64712713e-10
1.66632663e-10
1.68333397e-10
1.69811403e-10
1.71024869e-10
1.71835244e-10
1.70408372e-30
4.08472703e-30
3.93685112e-30
1.9989657e-30
1.09268811e-30
6.46840521e-31
4.09688135e-31
2.66536854e-31
1.71783426e-31
1.08392704e-31
6.86095241e-32
4.70948346e-32
3.13560529e-32
2.18347108e-32
1.51542957e-32
1.0486642e-32
7.25743793e-33
5.94114603e-33
4.32969592e-33
3.24112335e-33
2.14669882e-33
1.5570264e-33
1.13700092e-33
8.64744602e-34
1.41368278e-33
5.30857656e-32
3.63990256e-30
2.5182781e-28
1.74523007e-26
1.2138111e-24
8.47573965e-23
5.93457119e-21
4.16702177e-19
2.94103931e-17
2.08890168e-15
1.49648711e-13
1.08912336e-11
8.14008962e-10
6.46435266e-08
5.58630586e-06
1.59801721e-30
1.89812953e-30
2.30126997e-30
1.81416006e-30
1.18899488e-30
8.36516803e-31
5.93410686e-31
4.29034252e-31
3.04648883e-31
2.14542979e-31
1.51003098e-31
1.06898073e-31
7.45674123e-32
5.09197848e-32
3.66541879e-32
2.57433598e-32
1.95567005e-32
1.43027822e-32
1.100776e-32
8.39475304e-33
5.93231892e-33
4.87641122e-33
3.3916575e-33
2.47833484e-33
1.96986048e-33
1.00941605e-32
6.04144692e-31
4.17181515e-29
2.89387597e-27
2.01367918e-25
1.40417293e-23
9.8041468e-22
6.8563276e-20
4.8019371e-18
3.36229656e-16
2.34987497e-14
1.63681422e-12
1.13185692e-10
7.70562935e-09
4.95936215e-07
4.68588608e-31
1.34043732e-30
2.10502179e-30
1.34948622e-30
1.06493721e-30
1.15743039e-30
8.42277121e-31
6.84148278e-31
5.46803913e-31
4.34554074e-31
3.34660247e-31
2.56299247e-31
1.91508084e-31
1.44248727e-31
1.08975863e-31
7.96856938e-32
5.96768714e-32
4.4620735e-32
3.41739737e-32
2.63699599e-32
1.96476597e-32
1.52027057e-32
1.20394327e-32
8.9069255e-33
6.97303188e-33
6.9917211e-33
1.1465582e-31
7.6446349e-30
5.28801251e-28
3.66325594e-26
2.53339759e-24
1.74632555e-22
1.19867392e-20
8.16212809e-19
5.48380449e-17
3.61234924e-15
2.30968597e-13
1.41310499e-11
8.00000163e-10
3.95019133e-08
9.65310599e-32
5.09943167e-31
1.68107197e-30
1.31942204e-30
1.38140835e-30
1.24161607e-30
9.79292329e-31
8.19141227e-31
6.84748701e-31
5.79182717e-31
4.68001164e-31
3.73677583e-31
2.94638251e-31
2.29033137e-31
1.76064583e-31
1.34915952e-31
1.03694972e-31
7.98368475e-32
6.18095803e-32
4.79760587e-32
3.67453513e-32
2.8245501e-32
2.19745952e-32
1.6639101e-32
1.27916133e-32
1.00874151e-32
2.86745113e-32
1.45071406e-30
9.88048141e-29
6.7374771e-27
4.56655318e-25
3.06695009e-23
2.03348077e-21
1.32215562e-19
8.36617477e-18
5.10401636e-16
2.95660962e-14
1.59242461e-12
7.61042493e-11
3.01389965e-09
7.36873451e-32
1.00408346e-30
1.07259545e-30
1.10291929e-30
1.28685588e-30
1.40498802e-30
1.11259144e-30