/*--------------------------------*- C++ -*----------------------------------*\
  =========                 |
  \\      /  F ield         | OpenFOAM: The Open Source CFD Toolbox
   \\    /   O peration     | Website:  https://openfoam.org
    \\  /    A nd           | Version:  6
     \\/     M anipulation  |
\*---------------------------------------------------------------------------*/
FoamFile
{
    version     2.0;
    format      ascii;
    class       volScalarField;
    location    "25000";
    object      C2H5;
}
// * * * * * * * * * * * * * * * * * * * * * * * * * * * * * * * * * * * * * //

dimensions      [0 0 0 0 0 0 0];

internalField   nonuniform List<scalar> 
44870
(
9.0371302e-82
2.77908919e-81
5.96360189e-81
1.07838257e-80
1.7570433e-80
2.66438717e-80
3.83498292e-80
5.30262346e-80
7.10554804e-80
9.28166072e-80
1.19617761e-79
2.82511308e-79
2.04776326e-77
3.14858368e-75
4.97900554e-73
8.02829003e-71
1.3198374e-68
2.21223564e-66
3.77952298e-64
6.58042407e-62
1.16701942e-59
2.10748752e-57
3.87316859e-55
7.24101183e-53
1.37619446e-50
2.65768724e-48
5.21093217e-46
1.0367876e-43
2.09089641e-41
4.27131684e-39
8.82279664e-37
1.84071078e-34
3.86680436e-32
8.15959715e-30
1.71868071e-27
3.59035971e-25
7.3272699e-23
1.43142609e-20
2.52188277e-18
3.74990422e-16
9.05134987e-82
2.7879511e-81
6.00505548e-81
1.09198289e-80
1.7925647e-80
2.74251605e-80
3.98797264e-80
5.57554306e-80
7.56002913e-80
9.9957167e-80
1.30123718e-79
2.69760547e-79
1.72686002e-77
2.84940183e-75
4.88595027e-73
8.59788513e-71
1.55004925e-68
2.85987508e-66
5.39005913e-64
1.03674634e-61
2.03131457e-59
4.05186939e-57
8.21291065e-55
1.69162946e-52
3.53357527e-50
7.49122577e-48
1.60806088e-45
3.50085982e-43
7.70722098e-41
1.72049798e-38
3.87912825e-36
8.86798653e-34
2.04444652e-31
4.77824017e-29
1.12292019e-26
2.66795428e-24
6.31519203e-22
1.49267968e-19
3.30114511e-17
6.93446837e-15
9.18781373e-82
2.88429095e-81
6.37371118e-81
1.19431434e-80
2.02586961e-80
3.20620492e-80
4.8258833e-80
6.97916372e-80
9.78231843e-80
1.33498131e-79
1.78741758e-79
3.30111589e-79
1.96267854e-77
3.96824474e-75
8.32486217e-73
1.7804658e-70
3.86217536e-68
8.49113753e-66
1.88500247e-63
4.22716128e-61
9.54945609e-59
2.17641565e-56
4.98848458e-54
1.15345422e-51
2.6790228e-49
6.28188622e-47
1.47819253e-44
3.51583713e-42
8.38340725e-40
2.02436712e-37
4.89509917e-35
1.20129292e-32
2.94770832e-30
7.36180468e-28
1.83684152e-25
4.67796542e-23
1.18907883e-20
3.11042492e-18
7.81314373e-16
2.0275675e-13
1.08093465e-81
3.79777197e-81
9.28006389e-81
1.89627389e-80
3.4566882e-80
5.81313177e-80
9.20102246e-80
1.38811803e-79
2.01392185e-79
2.82699676e-79
3.87543875e-79
9.70507323e-79
1.1778172e-76
2.98848538e-74
7.58417657e-72
1.91483457e-69
4.80895264e-67
1.20236776e-64
2.99325533e-62
7.42416749e-60
1.83647805e-57
4.53360813e-55
1.1171588e-52
2.75204234e-50
6.77225525e-48
1.66882837e-45
4.11087384e-43
1.0155027e-40
2.5084601e-38
6.22552676e-36
1.54507183e-33
3.85931044e-31
9.63836501e-29
2.42662509e-26
6.10752011e-24
1.54865027e-21
3.91377538e-19
9.91877313e-17
2.42889352e-14
5.7855392e-12
3.5645474e-81
1.35397493e-80
3.17475311e-80
5.93735824e-80
9.73150262e-80
1.46214452e-79
2.0670018e-79
2.79293841e-79
3.64621877e-79
4.63351595e-79
6.05203258e-79
9.04172991e-78
2.32098686e-75
6.32778437e-73
1.69560538e-70
4.47389761e-68
1.16454476e-65
2.99568581e-63
7.62698083e-61
1.9245613e-58
4.81874173e-56
1.19849846e-53
2.96368503e-51
7.29275479e-49
1.78697059e-46
4.36335488e-44
1.06228183e-41
2.57939503e-39
6.25060311e-37
1.51202146e-34
3.65267513e-32
8.81430287e-30
2.12529394e-27
5.12119845e-25
1.23353948e-22
2.97027764e-20
7.15135741e-18
1.72157367e-15
4.14423957e-13
1.00303895e-10
1.30386692e-14
4.62895716e-14
1.01845842e-13
1.83386923e-13
2.94820801e-13
4.39690823e-13
6.20342046e-13
8.38663579e-13
1.09371285e-12
1.38551556e-12
1.71008352e-12
2.06670957e-12
2.45012167e-12
2.85997179e-12
3.29332755e-12
3.74877861e-12
4.22832611e-12
4.73053786e-12
5.26458603e-12
5.83205415e-12
6.44592496e-12
7.11575308e-12
7.85708814e-12
8.6887672e-12
9.63606097e-12
1.07295602e-11
1.19953415e-11
1.35024461e-11
1.52751479e-11
1.7419657e-11
1.99996606e-11
2.31235178e-11
2.69255471e-11
3.15184071e-11
3.71217098e-11
4.38924261e-11
5.21436081e-11
6.21186203e-11
7.42231178e-11
8.88315573e-11
1.06462791e-10
1.27675116e-10
1.53123471e-10
1.83473739e-10
2.19655151e-10
2.62414644e-10
3.12608475e-10
3.71117414e-10
4.3883294e-10
5.16660361e-10
6.05487473e-10
7.0623883e-10
8.19851206e-10
9.47406606e-10
1.09011097e-09
1.2494583e-09
1.42718574e-09
1.62541821e-09
1.84666944e-09
2.09400092e-09
2.37117856e-09
2.68284188e-09
3.03494495e-09
3.43483261e-09
3.89219303e-09
4.41874662e-09
5.03012371e-09
5.74533588e-09
6.58934664e-09
7.59186344e-09
8.78951676e-09
1.0224542e-08
1.1943007e-08
1.39978418e-08
1.6435685e-08
1.93157186e-08
2.26727425e-08
2.65552408e-08
3.10026387e-08
3.60596498e-08
4.17771233e-08
4.82196338e-08
5.54747695e-08
6.3651112e-08
7.28849719e-08
8.33352076e-08
9.52039392e-08
1.08711403e-07
1.24120027e-07
1.41732773e-07
1.61882997e-07
1.84946128e-07
2.11313138e-07
2.41394418e-07
2.7561196e-07
3.14397712e-07
3.58194948e-07
4.0747775e-07
4.62772084e-07
5.24707784e-07
5.94036559e-07
6.71686109e-07
7.58801153e-07
8.56835603e-07
9.67569377e-07
1.09329986e-06
1.23695638e-06
1.40218245e-06
1.5936847e-06
1.81725279e-06
2.0800838e-06
2.39094173e-06
2.76038199e-06
3.20095694e-06
3.72689239e-06
4.35320577e-06
5.09396516e-06
5.95883575e-06
6.94700118e-06
8.0378216e-06
9.17966452e-06
1.02795689e-05
1.12025459e-05
1.17930917e-05
1.19257861e-05
1.15599845e-05
1.07592622e-05
9.65857021e-06
8.41058423e-06
7.14411479e-06
5.94738852e-06
4.86947045e-06
3.93114848e-06
3.13443905e-06
2.46976297e-06
1.92278939e-06
1.47718178e-06
1.11742186e-06
8.3002558e-07
6.03520822e-07
4.32713626e-07
3.06763842e-07
2.16344317e-07
1.5295395e-07
1.08779288e-07
7.77642951e-08
5.58346555e-08
4.02412979e-08
2.9100944e-08
2.1109309e-08
1.53555507e-08
1.11993627e-08
8.18811533e-09
6.00031426e-09
4.40664967e-09
3.24299005e-09
2.39142128e-09
1.76690158e-09
1.30793233e-09
9.69958684e-10
7.20608142e-10
5.36302283e-10
3.99829079e-10
2.98597158e-10
2.23376769e-10
1.67389256e-10
1.25646912e-10
9.44732695e-11
7.11537218e-11
5.36805274e-11
4.05663271e-11
3.07075297e-11
2.32841215e-11
1.76861152e-11
1.3457097e-11
1.02553739e-11
7.8281138e-12
5.98522756e-12
4.58375341e-12
3.51622706e-12
2.70175575e-12
2.07934348e-12
1.60292687e-12
1.23768187e-12
9.57238054e-13
7.41567027e-13
5.75428228e-13
4.47236839e-13
3.48192479e-13
2.71574756e-13
2.12189673e-13
1.66071474e-13
1.30191296e-13
1.02287592e-13
8.05469872e-14
6.35477929e-14
5.02098013e-14
3.97556249e-14
3.15798129e-14
2.51576008e-14
2.01068564e-14
1.61118786e-14
1.29842708e-14
1.05357778e-14
8.62043191e-15
7.13235919e-15
5.98260737e-15
5.11858617e-15
4.46714349e-15
3.98229847e-15
3.6268496e-15
3.37516234e-15
3.20743444e-15
3.1044361e-15
3.05268762e-15
3.04028352e-15
3.05705776e-15
3.08620704e-15
3.13786326e-15
3.21404714e-15
3.29917056e-15
3.39194108e-15
3.48921846e-15
3.58783648e-15
3.68330289e-15
3.77172101e-15
3.84960072e-15
3.91488069e-15
3.9683116e-15
4.01298003e-15
4.05331257e-15
4.09406353e-15
4.13926454e-15
4.19124092e-15
4.25032164e-15
4.31553731e-15
4.38651451e-15
4.46147431e-15
4.52050027e-15
4.56763994e-15
4.60197094e-15
4.62057466e-15
4.62119301e-15
4.60278097e-15
4.56528621e-15
4.50936227e-15
4.43619103e-15
4.3474079e-15
4.24509506e-15
4.13181209e-15
4.01063144e-15
3.88512813e-15
3.75925372e-15
3.63704451e-15
3.52226049e-15
3.4184072e-15
3.3192179e-15
3.22923408e-15
3.14600307e-15
3.06695939e-15
2.98985002e-15
2.9129054e-15
2.83493462e-15
2.75532555e-15
2.67401556e-15
2.59151983e-15
2.5091519e-15
2.42967989e-15
2.35897242e-15
2.30976481e-15
2.94790808e-13
8.74596323e-13
1.63326423e-12
2.59312246e-12
3.78209835e-12
5.21730422e-12
6.89055838e-12
8.79905847e-12
1.09083892e-11
1.32048593e-11
1.56383028e-11
1.82058822e-11
2.08671149e-11
2.36377006e-11
2.65100256e-11
2.94916392e-11
3.26231808e-11
3.59218191e-11
3.94894448e-11
4.3358177e-11
4.76443441e-11
5.24286632e-11
5.78069981e-11
6.39368786e-11
7.0900227e-11
7.89535869e-11
8.8227137e-11
9.90723986e-11
1.11647971e-10
1.26325825e-10
1.43313867e-10
1.62913219e-10
1.85361944e-10
2.10936416e-10
2.39990798e-10
2.72861763e-10
3.10042399e-10
3.51891799e-10
3.98933593e-10
4.51463098e-10
5.09956873e-10
5.74690718e-10
6.46132363e-10
7.24525458e-10
8.10849846e-10
9.05548631e-10
1.00936734e-09
1.12308375e-09
1.24746619e-09
1.38332195e-09
1.53157544e-09
1.69347027e-09
1.87068106e-09
2.06551139e-09
2.28085513e-09
2.52023107e-09
2.78754585e-09
3.08709999e-09
3.42347834e-09
3.80180007e-09
4.22791883e-09
4.70896057e-09
5.25374835e-09
5.87319815e-09
6.58085083e-09
7.39232299e-09
8.32785827e-09
9.41115903e-09
1.06722754e-08
1.21456392e-08
1.38720056e-08
1.5895785e-08
1.82625627e-08
2.10220591e-08
2.42141954e-08
2.78918415e-08
3.20816902e-08
3.68309997e-08
4.21819234e-08
4.81895837e-08
5.49171325e-08
6.2446384e-08
7.08829009e-08
8.03504108e-08
9.0997472e-08
1.02993696e-07
1.16547977e-07
1.31886188e-07
1.49272907e-07
1.69016799e-07
1.91449453e-07
2.16939742e-07
2.45876864e-07
2.78665806e-07
3.15723822e-07
3.57480393e-07
4.04382104e-07
4.56916087e-07
5.15633624e-07
5.81207578e-07
6.54438319e-07
7.36315081e-07
8.28057869e-07
9.3120445e-07
1.04761583e-06
1.17969441e-06
1.33047556e-06
1.50372596e-06
1.70427836e-06
1.93802627e-06
2.21219783e-06
2.53554719e-06
2.91856605e-06
3.37353688e-06
3.91412484e-06
4.55434441e-06
5.30669492e-06
6.17853683e-06
7.16588796e-06
8.24417881e-06
9.35807563e-06
1.04126466e-05
1.12747921e-05
1.17961924e-05
1.18636301e-05
1.14482549e-05
1.06197424e-05
9.51141429e-06
8.27010865e-06
7.01837314e-06
5.83953057e-06
4.77939765e-06
3.85735305e-06
3.07483396e-06
2.42195547e-06
1.88466657e-06
1.44684422e-06
1.09337612e-06
8.11227797e-07
5.90112109e-07
4.23485537e-07
3.00649153e-07
2.1240622e-07
1.50471841e-07
1.07185017e-07
7.67190282e-08
5.51391809e-08
3.97733135e-08
2.87831712e-08
2.08918968e-08
1.52058384e-08
1.10956858e-08
8.11595788e-09
5.94986661e-09
4.37123385e-09
3.21803754e-09
2.37378461e-09
1.75439586e-09
1.29903758e-09
9.63614421e-10
7.16071068e-10
5.33049463e-10
3.97491389e-10
2.96913249e-10
2.22161078e-10
1.66509674e-10
1.25009149e-10
9.40098651e-11
7.08163025e-11
5.34343303e-11
4.03863191e-11
3.05756474e-11
2.3187313e-11
1.76149843e-11
1.34047104e-11
1.02165859e-11
7.79939517e-12
5.96393509e-12
4.56793669e-12
3.50445547e-12
2.69297943e-12
2.07278853e-12
1.59801991e-12
1.23399982e-12
9.5447172e-13
7.39487961e-13
5.73861736e-13
4.46050046e-13
3.47291431e-13
2.70894882e-13
2.11673625e-13
1.6568113e-13
1.29890654e-13
1.02058664e-13
8.03782878e-14
6.34235624e-14
5.01146996e-14
3.96810309e-14
3.15264874e-14
2.51225781e-14
2.00846442e-14
1.60964517e-14
1.29740086e-14
1.05324002e-14
8.62285007e-15
7.13846677e-15
5.99028423e-15
5.12822835e-15
4.47910632e-15
3.99599833e-15
3.64177656e-15
3.39098072e-15
3.22440809e-15
3.12237703e-15
3.07136336e-15
3.05967222e-15
3.07722795e-15
3.10641354e-15
3.15861021e-15
3.23559396e-15
3.32072078e-15
3.41352778e-15
3.51071867e-15
3.60914546e-15
3.70440557e-15
3.79260716e-15
3.87026219e-15
3.93533416e-15
3.98859754e-15
4.0331265e-15
4.07329687e-15
4.11378665e-15
4.15856599e-15
4.20992903e-15
4.26819941e-15
4.33242462e-15
4.40229788e-15
4.47677347e-15
4.53407908e-15
4.57983984e-15
4.61297287e-15
4.63044913e-15
4.63001109e-15
4.61063825e-15
4.57229286e-15
4.51563047e-15
4.44182713e-15
4.35250838e-15
4.24974451e-15
4.13608175e-15
4.01457762e-15
3.88879046e-15
3.7626535e-15
3.64018307e-15
3.52511454e-15
3.42114211e-15
3.32140696e-15
3.23115118e-15
3.14762188e-15
3.06828885e-15
2.99091727e-15
2.913745e-15
2.83558273e-15
2.75581647e-15
2.67438003e-15
2.59178474e-15
2.50934034e-15
2.42981181e-15
2.35906594e-15
2.30984212e-15
1.23743519e-11
3.08774985e-11
4.97960201e-11
7.04229282e-11
9.31152125e-11
1.17903322e-10
1.44306287e-10
1.71628424e-10
1.98776059e-10
2.25019779e-10
2.49669713e-10
2.72786378e-10
2.94326049e-10
3.14579858e-10
3.33776785e-10
3.52380569e-10
3.70988612e-10
3.90235546e-10
4.10937429e-10
4.33646838e-10
4.58793961e-10
4.86582582e-10
5.17188419e-10
5.51017437e-10
5.88567638e-10
6.30809347e-10
6.78452463e-10
7.32373654e-10
7.92306042e-10
8.58188236e-10
9.29377954e-10
1.00545762e-09
1.08626965e-09
1.17233217e-09
1.2646155e-09
1.36439291e-09
1.4728195e-09
1.59040654e-09
1.71737782e-09
1.85333081e-09
1.99856077e-09
2.15346246e-09
2.31987001e-09
2.49949671e-09
2.69642649e-09
2.91305455e-09
3.15170895e-09
3.41370052e-09
3.69961395e-09
4.01018024e-09
4.34711214e-09
4.71390876e-09
5.11589896e-09
5.56005738e-09
6.05407377e-09
6.60555754e-09
7.22122709e-09
7.90717246e-09
8.66934751e-09
9.51490613e-09
1.04530398e-08
1.14967597e-08
1.26624794e-08
1.397066e-08
1.54429345e-08
1.71024283e-08
1.89783364e-08
2.11018939e-08
2.35109747e-08
2.62457855e-08
2.93500635e-08
3.28657648e-08
3.68303218e-08
4.12816909e-08
4.62449054e-08
5.17645992e-08
5.78627136e-08
6.45983053e-08
7.20341624e-08
8.02565254e-08
8.93619469e-08
9.94678832e-08
1.10710961e-07
1.23239335e-07
1.3721742e-07
1.52828589e-07
1.70284942e-07
1.89823205e-07
2.11708401e-07
2.36246185e-07
2.63770919e-07
2.94646202e-07
3.29254503e-07
3.67994875e-07
4.11283337e-07
4.59555041e-07
5.13276998e-07
5.72978757e-07
6.39280829e-07
7.12958897e-07
7.94925449e-07
8.86307344e-07
9.88488595e-07
1.1031822e-06
1.2324122e-06
1.37879136e-06
1.54557662e-06
1.73679624e-06
1.95750842e-06
2.2137828e-06
2.51283983e-06
2.86335748e-06
3.27552233e-06
3.76087412e-06
4.33165649e-06
4.9994298e-06
5.77303781e-06
6.65465899e-06
7.63344227e-06
8.67662392e-06
9.72193807e-06
1.06719314e-05
1.13995593e-05
1.17730554e-05
1.17052817e-05
1.11906043e-05
1.03094353e-05
9.18984147e-06
7.96597642e-06
6.74744795e-06
5.60768074e-06
4.58585654e-06
3.69875936e-06
2.94669882e-06
2.31906422e-06
1.80255937e-06
1.38144697e-06
1.04154642e-06
7.70768963e-07
5.61763052e-07
4.04078082e-07
2.87684729e-07
2.04111236e-07
1.45215408e-07
1.03787046e-07
7.44822169e-08
5.36466316e-08
3.8766789e-08
2.80985298e-08
2.04228105e-08
1.48824273e-08
1.08714851e-08
7.95977277e-09
5.84058165e-09
4.29445414e-09
3.16390491e-09
2.33550155e-09
1.72723342e-09
1.27970752e-09
9.49820085e-10
7.06201452e-10
5.25970391e-10
3.92401788e-10
2.93245621e-10
2.1951227e-10
1.64592528e-10
1.23618615e-10
9.29991753e-11
7.00801691e-11
5.28970611e-11
3.9993387e-11
3.0287693e-11
2.29758864e-11
1.74596147e-11
1.32902665e-11
1.01317942e-11
7.73662111e-12
5.91738654e-12
4.53335412e-12
3.47871371e-12
2.67378245e-12
2.05844602e-12
1.58728418e-12
1.2259479e-12
9.48421104e-13
7.34933871e-13
5.7042864e-13
4.43456896e-13
3.45328356e-13
2.6940719e-13
2.1055562e-13
1.64824595e-13
1.29241681e-13
1.01565031e-13
8.00052618e-14
6.31434126e-14
4.99068804e-14
3.95261742e-14
3.14134663e-14
2.5042367e-14
2.00317187e-14
1.60642273e-14
1.29560945e-14
1.05263807e-14
8.62654664e-15
7.15058967e-15
6.00836087e-15
5.15109713e-15
4.50578163e-15
4.02575979e-15
3.67453877e-15
3.42626719e-15
3.26211719e-15
3.16199796e-15
3.11256487e-15
3.1024425e-15
3.12172583e-15
3.1549285e-15
3.20783812e-15
3.28300556e-15
3.36821009e-15
3.46105361e-15
3.55807466e-15
3.65612379e-15
3.75091619e-15
3.83859045e-15
3.91571439e-15
3.98030202e-15
4.03315558e-15
4.07732589e-15
4.11708553e-15
4.15696564e-15
4.20080208e-15
4.25081412e-15
4.30730901e-15
4.36936891e-15
4.43685482e-15
4.51031105e-15
4.56377705e-15
4.60655429e-15
4.63708532e-15
4.65209948e-15
4.64935007e-15
4.62787364e-15
4.58766489e-15
4.52938373e-15
4.45419334e-15
4.36369774e-15
4.25994122e-15
4.1454408e-15
4.02322151e-15
3.89680553e-15
3.77008681e-15
3.64703884e-15
3.53133527e-15
3.42604828e-15
3.32615279e-15
3.23534297e-15
3.15116227e-15
3.07119896e-15
2.9932564e-15
2.91558792e-15
2.83700764e-15
2.75689786e-15
2.67518496e-15
2.59237163e-15
2.5097592e-15
2.43010589e-15
2.35927451e-15
2.31000892e-15
5.7857571e-10
1.09337802e-09
1.48334891e-09
1.7719715e-09
2.02884013e-09
2.27204505e-09
2.47643496e-09
2.62219888e-09
2.6995803e-09
2.71620566e-09
2.69043362e-09
2.64631325e-09
2.59400199e-09
2.53947375e-09
2.4879614e-09
2.44581555e-09
2.41793783e-09
2.408844e-09
2.42051599e-09
2.44935988e-09
2.48875049e-09
2.53321098e-09
2.58263243e-09
2.6408053e-09
2.7151082e-09
2.81230187e-09
2.93582464e-09
3.0829741e-09
3.24503475e-09
3.41540567e-09
3.5900505e-09
3.77095215e-09
3.96486087e-09
4.18191765e-09
4.43196283e-09
4.72110155e-09
5.04865544e-09
5.40774633e-09
5.79063258e-09
6.19189537e-09
6.61396802e-09
7.06344279e-09
7.55340876e-09
8.09466976e-09
8.70243354e-09
9.38134367e-09
1.01287283e-08
1.09356512e-08
1.17934806e-08
1.27001114e-08
1.36626147e-08
1.4696629e-08
1.5822502e-08
1.70608898e-08
1.84273187e-08
1.99294852e-08
2.15678948e-08
2.33406022e-08
2.5248454e-08
2.72997515e-08
2.95118156e-08
3.19146216e-08
3.45438128e-08
3.74355029e-08
4.06174522e-08
4.41150391e-08
4.79617006e-08
5.21909867e-08
5.68455563e-08
6.19665518e-08
6.75936094e-08
7.37564661e-08
8.04750355e-08
8.77720583e-08
9.56624147e-08
1.04200517e-07
1.13431825e-07
1.23459772e-07
1.34398299e-07
1.46385299e-07
1.59571274e-07
1.7411012e-07
1.90159053e-07
2.07878858e-07
2.27429939e-07
2.48994267e-07
2.72774928e-07
2.99004356e-07
3.27949041e-07
3.59916346e-07
3.95246702e-07
4.34309688e-07
4.77493708e-07
5.25211432e-07
5.77903978e-07
6.36044581e-07
7.00162411e-07
7.70881547e-07
8.48954016e-07
9.35318332e-07
1.03106378e-06
1.13752493e-06
1.25632171e-06
1.38940096e-06
1.53898422e-06
1.70793496e-06
1.89983503e-06
2.11905894e-06
2.37087636e-06
2.6614466e-06
2.99779101e-06
3.38817099e-06
3.84197702e-06
4.36920208e-06
4.97939033e-06
5.67974017e-06
6.47312451e-06
7.35375902e-06
8.3009175e-06
9.27090771e-06
1.01945474e-05
1.09753224e-05
1.14997334e-05
1.16618006e-05
1.14113618e-05
1.0770834e-05
9.83079674e-06
8.70746817e-06
7.51651872e-06
6.35021976e-06
5.26905012e-06
4.30328805e-06
3.46715462e-06
2.75952342e-06
2.16845508e-06
1.68227108e-06
1.28552528e-06
9.65606184e-07
7.14898879e-07
5.22169643e-07
3.76668333e-07
2.69498951e-07
1.92444534e-07
1.37732667e-07
9.89017036e-08
7.12444389e-08
5.14755545e-08
3.72971623e-08
2.70958531e-08
1.97340917e-08
1.44065737e-08
1.05409923e-08
7.72916432e-09
5.67898519e-09
4.18077062e-09
3.08365913e-09
2.27869308e-09
1.68688416e-09
1.25096563e-09
9.29291253e-10
6.915014e-10
5.15418558e-10
3.84809916e-10
2.87771097e-10
2.15555949e-10
1.61727284e-10
1.21539203e-10
9.14869464e-11
6.89781582e-11
5.20923483e-11
3.9404575e-11
2.98559903e-11
2.26587703e-11
1.72265185e-11
1.31179465e-11
1.00044054e-11
7.64232016e-12
5.84743909e-12
4.48137158e-12
3.44000792e-12
2.6449068e-12
2.03686517e-12
1.57112937e-12
1.21383278e-12
9.39313326e-13
7.28071785e-13
5.65255218e-13
4.39556806e-13
3.42379524e-13
2.67165153e-13
2.08850483e-13
1.6353706e-13
1.28273952e-13
1.00828388e-13
7.9439048e-14
6.27146645e-14
4.95960308e-14
3.9301631e-14
3.12469653e-14
2.4918404e-14
1.99484819e-14
1.60180979e-14
1.29341976e-14
1.05193192e-14
8.63129881e-15
7.16827904e-15
6.03757253e-15
5.18788458e-15
4.54712988e-15
4.07110972e-15
3.72462806e-15
3.48076044e-15
3.32000307e-15
3.22265518e-15
3.17563334e-15
3.16785701e-15
3.18953178e-15
3.22742548e-15
3.28238138e-15
3.35557268e-15
3.44069797e-15
3.53348807e-15
3.63019298e-15
3.72774336e-15
3.82180163e-15
3.9085898e-15
3.98481202e-15
4.04857456e-15
4.10072097e-15
4.14424326e-15
4.18327901e-15
4.22216043e-15
4.2645267e-15
4.31246906e-15
4.36626269e-15
4.42503959e-15
4.48889497e-15
4.56106689e-15
4.60841171e-15
4.64678128e-15
4.67343333e-15
4.6847446e-15
4.67851122e-15
4.65386357e-15
4.61084562e-15
4.55012296e-15
4.472839e-15
4.38056525e-15
4.27530688e-15
4.15953713e-15
4.03623238e-15
3.908861e-15
3.78125871e-15
3.65733596e-15
3.54065285e-15
3.43352382e-15
3.33335799e-15
3.24164908e-15
3.15648352e-15
3.07557448e-15
2.99677602e-15
2.91836328e-15
2.83915535e-15
2.75852929e-15
2.67640066e-15
2.59325896e-15
2.51039295e-15
2.43055082e-15
2.35958935e-15
2.31025581e-15
2.53519948e-08
2.67831102e-08
2.4010733e-08
2.11366208e-08
2.08094457e-08
2.10487698e-08
2.03550828e-08
1.88413282e-08
1.68480857e-08
1.48674521e-08
1.32608445e-08
1.22017165e-08
1.13742174e-08
1.06660795e-08
1.00981648e-08
9.69978146e-09
9.47769703e-09
9.4379981e-09
9.5377105e-09
9.66933477e-09
9.74780435e-09
9.7795588e-09
9.83763728e-09
1.00049329e-08
1.03499584e-08
1.08891805e-08
1.15894767e-08
1.23436687e-08
1.3062645e-08
1.37103311e-08
1.4313525e-08
1.49418603e-08
1.56750027e-08
1.65798861e-08
1.76869774e-08
1.89735519e-08
2.03628131e-08
2.17658922e-08
2.31331537e-08
2.44697714e-08
2.58323977e-08
2.72904203e-08
2.89172971e-08
3.07505718e-08
3.28289517e-08
3.51187735e-08
3.7538712e-08
4.00044397e-08
4.24749692e-08
4.49681307e-08
4.7546076e-08
5.02897011e-08
5.32707069e-08
5.65313316e-08
6.00688103e-08
6.384154e-08
6.77915824e-08
7.18750554e-08
7.60829146e-08
8.04445595e-08
8.50201571e-08
8.99085266e-08
9.51989974e-08
1.00933816e-07
1.07128624e-07
1.13786431e-07
1.20934158e-07
1.28613708e-07
1.36884596e-07
1.45791273e-07
1.55362352e-07
1.65598459e-07
1.76484729e-07
1.8802424e-07
2.00233261e-07
2.13209912e-07
2.2707336e-07
2.42012989e-07
2.58225415e-07
2.75917347e-07
2.95283245e-07
3.16489442e-07
3.39674672e-07
3.64966014e-07
3.92477183e-07
4.22366051e-07
4.54812572e-07
4.90046536e-07
5.28355745e-07
5.70080385e-07
6.15603412e-07
6.65341838e-07
7.19735947e-07
7.79262733e-07
8.44441161e-07
9.15837965e-07
9.94100805e-07
1.0800137e-06
1.17451568e-06
1.27874409e-06
1.39402763e-06
1.52195086e-06
1.66440093e-06
1.82355777e-06
2.00175691e-06
2.20210806e-06
2.42859022e-06
2.6858837e-06
2.97930434e-06
3.31474336e-06
3.69840068e-06
4.13751519e-06
4.63978931e-06
5.21234458e-06
5.86018126e-06
6.58365645e-06
7.3774091e-06
8.22554854e-06
9.09608789e-06
9.93424895e-06
1.06690692e-05
1.12132142e-05
1.14767602e-05
1.13855227e-05
1.09333091e-05
1.01673081e-05
9.18335939e-06
8.07578787e-06
6.93820421e-06
5.84392585e-06
4.83945187e-06
3.94466902e-06
3.17316493e-06
2.52198312e-06
1.97671807e-06
1.52915162e-06
1.16332312e-06
8.74217225e-07
6.47893999e-07
4.74343258e-07
3.43786048e-07
2.47763643e-07
1.78366308e-07
1.28555087e-07
9.28364112e-08
6.71899899e-08
4.87393435e-08
3.54356279e-08
2.58205646e-08
1.88551042e-08
1.3797467e-08
1.01168646e-08
7.43254836e-09
5.47071162e-09
4.03401777e-09
2.97991197e-09
2.20511574e-09
1.6345462e-09
1.21363453e-09
9.02595077e-10
6.72363351e-10
5.01666418e-10
3.74905523e-10
2.8062222e-10
2.1038496e-10
1.57979154e-10
1.18816837e-10
8.95056004e-11
6.75332145e-11
5.10364686e-11
3.86314577e-11
2.9288789e-11
2.22418505e-11
1.69199576e-11
1.28909555e-11
9.83665796e-12
7.51807591e-12
5.75523693e-12
4.4128199e-12
3.38894331e-12
2.6067935e-12
2.00836745e-12
1.54979151e-12
1.19782997e-12
9.27278827e-13
7.18996761e-13
5.58411142e-13
4.34403727e-13
3.384883e-13
2.64201331e-13
2.06587706e-13
1.61835131e-13
1.27003171e-13
9.98627554e-14
7.86895326e-14
6.21426574e-14
4.91869458e-14
3.90131639e-14
3.10319766e-14
2.47550205e-14
1.98367386e-14
1.59603893e-14
1.29105144e-14
1.05131652e-14
8.63887782e-15
7.19236168e-15
6.07915961e-15
5.2393642e-15
4.60388538e-15
4.13289017e-15
3.79266627e-15
3.5550386e-15
3.39827382e-15
3.30458443e-15
3.26091483e-15
3.25622911e-15
3.28079795e-15
3.32233397e-15
3.37997029e-15
3.45306968e-15
3.53818734e-15
3.63076357e-15
3.72694311e-15
3.82389761e-15
3.91695507e-15
4.002452e-15
4.07733848e-15
4.13988636e-15
4.1909704e-15
4.23348113e-15
4.27139294e-15
4.30880883e-15
4.34912368e-15
4.39424351e-15
4.44439426e-15
4.4987702e-15
4.55768203e-15
4.62876061e-15
4.66722136e-15
4.69996664e-15
4.72155394e-15
4.72796961e-15
4.71711914e-15
4.68826994e-15
4.64153083e-15
4.57757304e-15
4.49751278e-15
4.40287847e-15
4.29562377e-15
4.1781644e-15
4.05341307e-15
3.92476778e-15
3.79598864e-15
3.6709058e-15
3.55295949e-15
3.44408342e-15
3.34293852e-15
3.24997423e-15
3.16350196e-15
3.08134742e-15
3.00142277e-15
2.92203002e-15
2.84199452e-15
2.76068686e-15
2.67800871e-15
2.5944323e-15
2.51122989e-15
2.43113674e-15
2.36000168e-15
2.31057493e-15
7.00002695e-07
2.64316179e-07
1.47452598e-07
1.26135289e-07
1.73722527e-07
1.78297533e-07
1.50198564e-07
1.20880418e-07
9.47834189e-08
7.63474488e-08
6.58798144e-08
6.19663222e-08
5.65962163e-08
5.11932274e-08
4.73242091e-08
4.50292577e-08
4.40587057e-08
4.42755738e-08
4.48898079e-08
4.4780967e-08
4.36574296e-08
4.23148434e-08
4.16083299e-08
4.20337913e-08
4.37142081e-08
4.63536407e-08
4.93487232e-08
5.18151704e-08
5.34345221e-08
5.43971632e-08
5.51976689e-08
5.63438205e-08
5.81900553e-08
6.08764851e-08
6.42949407e-08
6.80664343e-08
7.16544622e-08
7.47004568e-08
7.72098439e-08
7.94570561e-08
8.18144742e-08
8.45744824e-08
8.79211653e-08
9.18565348e-08
9.64109417e-08
1.01277849e-07
1.06039292e-07
1.10440852e-07
1.14501347e-07
1.18441302e-07
1.22547141e-07
1.27063605e-07
1.32125314e-07
1.37729758e-07
1.43730527e-07
1.49913636e-07
1.56092981e-07
1.62195166e-07
1.68277953e-07
1.74487782e-07
1.81009797e-07
1.8812398e-07
1.95972825e-07
2.04519894e-07
2.13686152e-07
2.23417567e-07
2.3374311e-07
2.44728041e-07
2.56457615e-07
2.68958198e-07
2.8221212e-07
2.96146938e-07
3.10686675e-07
3.25817124e-07
3.41585377e-07
3.58180361e-07
3.75841947e-07
3.94860539e-07
4.15511671e-07
4.38046275e-07
4.62656033e-07
4.89466575e-07
5.18550361e-07
5.49965207e-07
5.83766986e-07
6.20095799e-07
6.59136734e-07
7.0116097e-07
7.46523878e-07
7.9564536e-07
8.48993776e-07
9.07068496e-07
9.70391483e-07
1.03951808e-06
1.11505032e-06
1.19764841e-06
1.28805451e-06
1.38718652e-06
1.49610582e-06
1.61608802e-06
1.74862328e-06
1.89545282e-06
2.05861376e-06
2.24036452e-06
2.44287981e-06
2.66947193e-06
2.92436247e-06
3.2122657e-06
3.53819999e-06
3.90736656e-06
4.32459619e-06
4.79586415e-06
5.32688134e-06
5.92165719e-06
6.58071755e-06
7.29810958e-06
8.06239684e-06
8.8509653e-06
9.6256728e-06
1.03266095e-05
1.08895286e-05
1.12404875e-05
1.13108383e-05
1.10451451e-05
1.04694641e-05
9.63918616e-06
8.64993043e-06
7.57182956e-06
6.48492831e-06
5.45094681e-06
4.50766737e-06
3.667055e-06
2.94573377e-06
2.33854703e-06
1.8279594e-06
1.41075637e-06
1.07385247e-06
8.07516376e-07
5.99449179e-07
4.40093796e-07
3.20384925e-07
2.32212035e-07
1.68102626e-07
1.21742701e-07
8.82754728e-08
6.41115048e-08
4.66461022e-08
3.40028906e-08
2.48341091e-08
1.81723055e-08
1.33225785e-08
9.78513375e-09
7.1998908e-09
5.30693002e-09
3.91836272e-09
2.89798163e-09
2.14688999e-09
1.59305477e-09
1.18399107e-09
8.81363896e-10
6.57121169e-10
4.90698943e-10
3.6699659e-10
2.74906755e-10
2.06246066e-10
1.5497586e-10
1.16633201e-10
8.79147637e-11
6.63719518e-11
5.01871117e-11
3.80090138e-11
2.88317469e-11
2.19056173e-11
1.6672676e-11
1.27077355e-11
9.70109768e-12
7.417602e-12
5.68062849e-12
4.35731595e-12
3.3475763e-12
2.57590509e-12
1.98526065e-12
1.53247748e-12
1.18483669e-12
9.17509564e-13
7.11635002e-13
5.52855209e-13
4.30210223e-13
3.35320972e-13
2.61800475e-13
2.04762088e-13
1.60452797e-13
1.25961374e-13
9.90754858e-14
7.80912437e-14
6.16882269e-14
4.88518305e-14
3.8770763e-14
3.08570196e-14
2.46308648e-14
1.97526384e-14
1.59120981e-14
1.28878242e-14
1.05092672e-14
8.64977976e-15
7.21547047e-15
6.11352761e-15
5.2814323e-15
4.65175075e-15
4.18576703e-15
3.85017147e-15
3.61682669e-15
3.46341913e-15
3.37284677e-15
3.3319842e-15
3.32974867e-15
3.35645171e-15
3.40028827e-15
3.4598016e-15
3.53349886e-15
3.61878028e-15
3.71117982e-15
3.80692221e-15
3.90326002e-15
3.99547694e-15
4.07989953e-15
4.15364674e-15
4.21515062e-15
4.26530331e-15
4.30690574e-15
4.34378487e-15
4.37987108e-15
4.41836864e-15
4.46105516e-15
4.5081298e-15
4.55883262e-15
4.61350178e-15
4.68448008e-15
4.71465543e-15
4.74312919e-15
4.76065503e-15
4.76308632e-15
4.74847315e-15
4.71620455e-15
4.6664401e-15
4.59985289e-15
4.51753558e-15
4.42098102e-15
4.31210105e-15
4.19326487e-15
4.06733373e-15
3.93764892e-15
3.8079098e-15
3.68188363e-15
3.56293044e-15
3.45284608e-15
3.35072817e-15
3.25670866e-15
3.16917113e-15
3.08600793e-15
3.0051727e-15
2.92498791e-15
2.84428366e-15
2.76242499e-15
2.67930237e-15
2.59537449e-15
2.51190049e-15
2.43160484e-15
2.36032966e-15
2.31082747e-15
1.02583391e-32
8.47832067e-33
8.13632307e-33
8.42895496e-33
6.19615e-33
4.27489724e-33
3.05132591e-33
2.29562877e-33
1.76548074e-33
1.09868778e-33
6.91488013e-34
5.47933919e-34
3.94996251e-34
2.88165642e-34
2.1702388e-34
1.49741648e-34
1.0313475e-34
8.5682214e-35
7.36301627e-35
6.18966674e-35
3.4806497e-35
2.38735072e-35
1.574698e-35
1.05483159e-35
1.1846583e-35
3.25253722e-34
2.21317666e-32
1.53106284e-30
1.06106791e-28
7.37977349e-27
5.15310914e-25
3.60814166e-23
2.53353804e-21
1.78818542e-19
1.27010798e-17
9.09927539e-16
6.6224375e-14
4.94956088e-12
3.93050559e-10
3.39653905e-08
7.82656175e-33
9.90132005e-33
1.05650882e-32
7.12862783e-33
5.43649266e-33
4.53551115e-33
3.64858221e-33
2.98098642e-33
2.40752444e-33
1.79535156e-33
1.29445483e-33
1.06260843e-33
7.32026783e-34
4.98241916e-34
4.05601618e-34
2.98844673e-34
2.60826332e-34
1.93829693e-34
1.53979948e-34
1.28331258e-34
8.68138609e-35
8.26672488e-35
5.114046e-35
3.30648331e-35
2.42451999e-35
7.05612964e-35
3.67999025e-33
2.53643137e-31
1.75941608e-29
1.22426684e-27
8.53696607e-26
5.96063561e-24
4.1684614e-22
2.91944615e-20
2.04416632e-18
1.42860468e-16
9.95023507e-15
6.87946809e-13
4.68204938e-11
3.01152345e-09
1.65580166e-33
3.80224589e-33
4.45229341e-33
5.19733861e-33
4.85099532e-33
4.6572631e-33
3.90132005e-33
3.92364629e-33
3.20207247e-33
2.74918909e-33
2.16133115e-33
1.80376976e-33
1.33856847e-33
1.17303532e-33
9.770724e-34
6.92308414e-34
5.34278985e-34
4.02040367e-34
3.34801417e-34
2.82960542e-34
2.10425596e-34
1.70754093e-34
1.50824919e-34
1.09275232e-34
9.26674145e-35
8.59150045e-35
7.27783311e-34
4.64991588e-32
3.21492327e-30
2.22706459e-28
1.54013174e-26
1.06162173e-24
7.28673031e-23
4.9615243e-21
3.33322154e-19
2.1954433e-17
1.40345338e-15
8.58349402e-14
4.85614713e-12
2.39450086e-10
1.63528289e-33
2.27907155e-33
3.69530673e-33
4.09860588e-33
4.74553012e-33
4.06128695e-33
4.06909417e-33
3.82108148e-33
3.23093853e-33
3.21036801e-33
2.50195726e-33
2.07740678e-33
1.79164263e-33
1.47871813e-33
1.1731323e-33
9.57174918e-34
7.75192411e-34
6.34335662e-34
5.21407946e-34
4.34586254e-34
3.37052124e-34
2.68689965e-34
2.21364317e-34
1.68702227e-34
1.40973534e-34
1.1516507e-34
2.21040811e-34