/*--------------------------------*- C++ -*----------------------------------*\
  =========                 |
  \\      /  F ield         | OpenFOAM: The Open Source CFD Toolbox
   \\    /   O peration     | Website:  https://openfoam.org
    \\  /    A nd           | Version:  6
     \\/     M anipulation  |
\*---------------------------------------------------------------------------*/
FoamFile
{
    version     2.0;
    format      ascii;
    class       volScalarField;
    location    "25000";
    object      C2H6;
}
// * * * * * * * * * * * * * * * * * * * * * * * * * * * * * * * * * * * * * //

dimensions      [0 0 0 0 0 0 0];

internalField   nonuniform List<scalar> 
44870
(
1.74416694e-73
5.49193416e-73
1.20351454e-72
2.21905523e-72
3.68327888e-72
5.68652817e-72
8.33027506e-72
1.17202299e-71
1.59790774e-71
2.12346366e-71
2.76378859e-71
3.53465537e-71
4.47601466e-71
8.70085569e-71
4.71074178e-69
6.94572379e-67
1.05745247e-64
1.63870681e-62
2.58374822e-60
4.14388786e-58
6.75717903e-56
1.11990773e-53
1.88545666e-51
3.22335135e-49
5.59227479e-47
9.84218867e-45
1.75585496e-42
3.17397739e-40
5.80739446e-38
1.07498625e-35
2.00976734e-33
3.79152293e-31
7.19638002e-29
1.37126394e-26
2.60702934e-24
4.9151692e-22
9.05245422e-20
1.59666154e-17
2.54017634e-15
3.4228675e-13
1.74713491e-73
5.51155352e-73
1.21275603e-72
2.24973188e-72
3.764619e-72
5.86862285e-72
8.69369965e-72
1.238175e-71
1.7104012e-71
2.30412314e-71
3.04137649e-71
3.94496952e-71
5.06306932e-71
9.58379044e-71
5.20641248e-69
8.34981614e-67
1.38907537e-64
2.35884381e-62
4.08139663e-60
7.18893786e-58
1.2868931e-55
2.33999583e-53
4.31483589e-51
8.06865047e-49
1.52743428e-46
2.92922008e-44
5.67904647e-42
1.11473853e-39
2.20967781e-37
4.434092e-35
8.97610428e-33
1.83955149e-30
3.79802768e-28
7.93898142e-26
1.66735109e-23
3.5368687e-21
7.47096821e-19
1.57536558e-16
3.10653622e-14
5.83141067e-12
1.77620434e-73
5.71961069e-73
1.29368155e-72
2.47853262e-72
4.2966404e-72
6.94834344e-72
1.0687978e-71
1.57995223e-71
2.26446014e-71
3.16102589e-71
4.31918595e-71
5.78903841e-71
7.66360316e-71
1.50208137e-70
9.89698864e-69
1.90331463e-66
3.75365853e-64
7.48814198e-62
1.50647031e-59
3.05617533e-57
6.23975618e-55
1.28307386e-52
2.65157967e-50
5.51796459e-48
1.15300985e-45
2.42743569e-43
5.12814622e-41
1.09253912e-38
2.33405195e-36
5.03649191e-34
1.08882614e-31
2.38211529e-29
5.2141744e-27
1.158222e-24
2.57200956e-22
5.81317696e-20
1.31188505e-17
3.03765467e-15
6.75180028e-13
1.54237625e-10
2.11730877e-73
7.67964972e-73
1.930224e-72
4.04965606e-72
7.57289982e-72
1.30616645e-71
2.12070999e-71
3.28311843e-71
4.89018613e-71
7.05065757e-71
9.88716859e-71
1.35306558e-70
1.82782201e-70
6.03982008e-70
8.4057963e-68
1.9055975e-65
4.31027242e-63
9.7008825e-61
2.17218466e-58
4.8434646e-56
1.07612288e-53
2.38428063e-51
5.26922294e-49
1.16295481e-46
2.56267188e-44
5.64766787e-42
1.24384269e-39
2.74305199e-37
6.04888507e-35
1.33778618e-32
2.9593254e-30
6.57550312e-28
1.46132709e-25
3.26714392e-23
7.30545768e-21
1.64255478e-18
3.6835403e-16
8.27301163e-14
1.79824749e-11
3.80260359e-09
7.3159542e-73
2.85853504e-72
6.87609853e-72
1.3176166e-71
2.21082207e-71
3.39785102e-71
4.91043235e-71
6.77897897e-71
9.03808508e-71
1.17224301e-70
1.48729275e-70
1.85416564e-70
2.54084743e-70
6.78863837e-69
1.56650039e-66
3.7097321e-64
8.67099077e-62
2.00314921e-59
4.58031228e-57
1.03793088e-54
2.3335458e-52
5.21047816e-50
1.15646145e-47
2.55341116e-45
5.61231133e-43
1.22880777e-40
2.68149924e-38
5.8338752e-36
1.26616466e-33
2.74195304e-31
5.92751397e-29
1.27939277e-26
2.75812345e-24
5.93934913e-22
1.27799044e-19
2.7478214e-17
5.90524235e-15
1.26840383e-12
2.72334379e-10
5.87617971e-08
1.09550936e-11
4.76684506e-11
1.29194965e-10
2.89836207e-10
5.8495639e-10
1.09725043e-09
1.94266149e-09
3.28173972e-09
5.32053624e-09
8.33825083e-09
1.26724491e-08
1.87778068e-08
2.71802947e-08
3.85803238e-08
5.37966326e-08
7.3829882e-08
9.99273155e-08
1.33479882e-07
1.76360905e-07
2.30517654e-07
2.98553441e-07
3.83326073e-07
4.88331382e-07
6.17738161e-07
7.76414142e-07
9.70322485e-07
1.20557003e-06
1.49145364e-06
1.83541835e-06
2.25054742e-06
2.74818733e-06
3.34350904e-06
4.05388947e-06
4.89624134e-06
5.89466758e-06
7.06939228e-06
8.45081972e-06
1.00640742e-05
1.19449193e-05
1.41259331e-05
1.66490783e-05
1.9557194e-05
2.28980473e-05
2.67170728e-05
3.10734307e-05
3.60103369e-05
4.15746534e-05
4.78123797e-05
5.47691706e-05
6.24917423e-05
7.10263344e-05
8.04204139e-05
9.07181859e-05
0.000101962507
0.000114188043
0.000127423018
0.000141682543
0.000156971047
0.000173279918
0.000190590848
0.000208877881
0.000228108426
0.000248249253
0.000269263461
0.000291123762
0.000313802054
0.000337287689
0.000361569081
0.000386648848
0.000412517896
0.000439165677
0.000466564995
0.000494668665
0.000523432688
0.000552774759
0.000582668892
0.000612990265
0.000643711888
0.000674781658
0.000706162058
0.000737818782
0.000769723419
0.000801856933
0.000834198894
0.00086672925
0.000899418456
0.000932239876
0.000965147874
0.000998095097
0.00103103053
0.00106389586
0.00109663441
0.00112918565
0.0011614917
0.00119349792
0.00122515319
0.00125640836
0.00128721534
0.00131752355
0.00134727966
0.00137641206
0.00140484025
0.00143245913
0.00145914062
0.00148472776
0.00150903292
0.0015318249
0.00155281626
0.00157164646
0.00158786125
0.00160088464
0.00160998522
0.0016142361
0.00161245915
0.00160317658
0.00158457193
0.00155448096
0.00151045619
0.00144996336
0.00137078135
0.00127166438
0.0011532228
0.00101878388
0.000874718937
0.000729662361
0.000592473728
0.000470003713
0.000365871829
0.000280646923
0.000212848066
0.000160012032
0.00011944622
8.8640033e-05
6.54385925e-05
4.80787847e-05
3.516056e-05
2.55935501e-05
1.85403633e-05
1.33641354e-05
9.58592616e-06
6.85302706e-06
4.89354337e-06
3.49864445e-06
2.50892836e-06
1.80532768e-06
1.30301729e-06
9.43084515e-07
6.84338481e-07
4.97786867e-07
3.62921245e-07
2.65173505e-07
1.94157877e-07
1.42445986e-07
1.04708777e-07
7.71124364e-08
5.68920138e-08
4.20488004e-08
3.11340343e-08
2.31008811e-08
1.71818975e-08
1.28133848e-08
9.5830755e-09
7.18886178e-09
5.40841345e-09
4.07354237e-09
3.06898195e-09
2.31249028e-09
1.74457834e-09
1.31815108e-09
9.97522792e-10
7.56096672e-10
5.74029086e-10
4.36510546e-10
3.32483992e-10
2.53657162e-10
1.93806029e-10
1.48299249e-10
1.13648572e-10
8.72241831e-11
6.7043095e-11
5.16077873e-11
3.97853416e-11
3.07173527e-11
2.37527431e-11
1.83969141e-11
1.42730606e-11
1.10936796e-11
8.63991003e-12
6.74446863e-12
5.27867657e-12
4.14306976e-12
3.26164363e-12
2.57645897e-12
2.04423681e-12
1.63023942e-12
1.30723046e-12
1.05452543e-12
8.5722858e-13
7.03729102e-13
5.83909459e-13
4.90470476e-13
4.17297144e-13
3.60885096e-13
3.17519944e-13
2.84542156e-13
2.59967022e-13
2.42104855e-13
2.30101749e-13
2.22203177e-13
2.17755914e-13
2.15893271e-13
2.16097586e-13
2.17977759e-13
2.21083234e-13
2.25343237e-13
2.30533873e-13
2.36393896e-13
2.41906976e-13
2.49051783e-13
2.58895783e-13
2.70256603e-13
2.83634782e-13
2.99185897e-13
3.16936088e-13
3.36632592e-13
3.57956569e-13
3.80565404e-13
4.04234138e-13
4.29162725e-13
4.55992174e-13
4.85700855e-13
5.19492146e-13
5.58626084e-13
6.04201918e-13
6.57018543e-13
7.17606221e-13
7.86503512e-13
8.63869019e-13
9.46304505e-13
1.03445441e-12
1.12778084e-12
1.22504351e-12
1.32492971e-12
1.42622911e-12
1.52785216e-12
1.62884742e-12
1.72845521e-12
1.82619215e-12
1.92195421e-12
2.0161243e-12
2.10966451e-12
2.20415706e-12
2.30173896e-12
2.40487701e-12
2.51606506e-12
2.63831005e-12
2.76413627e-12
2.89747246e-12
3.03507701e-12
3.17328556e-12
3.30860864e-12
3.43808366e-12
3.55952432e-12
3.67158668e-12
3.77366854e-12
3.86568127e-12
3.94767994e-12
4.01922822e-12
4.07810695e-12
4.11736963e-12
2.25962771e-10
8.55466565e-10
2.04078248e-09
4.18690184e-09
7.91349677e-09
1.40651943e-08
2.37108451e-08
3.82736843e-08
5.94679206e-08
8.95539331e-08
1.31102896e-07
1.87502417e-07
2.624403e-07
3.60711616e-07
4.87596408e-07
6.49244091e-07
8.5295509e-07
1.10637857e-06
1.41929631e-06
1.80097011e-06
2.26316406e-06
2.81793591e-06
3.47841239e-06
4.26048243e-06
5.17778021e-06
6.25008747e-06
7.49239614e-06
8.92760537e-06
1.05717627e-05
1.24489145e-05
1.45770167e-05
1.69775111e-05
1.9667472e-05
2.26642767e-05
2.59841787e-05
2.96406461e-05
3.36502617e-05
3.80239125e-05
4.27798465e-05
4.79280256e-05
5.34870937e-05
5.94655539e-05
6.58776526e-05
7.27234908e-05
8.0025802e-05
8.77834107e-05
9.600525e-05
0.000104703815
0.000113895222
0.000123599297
0.000133838478
0.000144638326
0.00015602587
0.000168030631
0.000180683067
0.000194015383
0.000208058583
0.00022284227
0.00023839112
0.000254724389
0.000271853525
0.00028978325
0.00030851138
0.000328031762
0.000348337764
0.000369418891
0.000391274316
0.000413900985
0.000437302498
0.000461474207
0.000486409132
0.000512087074
0.00053847342
0.000565531526
0.000593197647
0.000621444735
0.000650166944
0.000679337313
0.000708906375
0.000738838126
0.000769095417
0.000799650255
0.000830481828
0.000861566378
0.0008928791
0.000924387933
0.000956059591
0.000987846982
0.00101969881
0.00105156257
0.00108337802
0.0011150858
0.00114662648
0.00117794221
0.00120897776
0.00123968028
0.00126999764
0.0012998775
0.0013292639
0.00135809706
0.00138629721
0.00141377547
0.00144041828
0.00146608859
0.00149062077
0.00151381765
0.00153543592
0.00155517432
0.001572655
0.00158740491
0.00159882853
0.00160617504
0.00160849684
0.00160460063
0.0015930041
0.00157190509
0.00153918473
0.00149248825
0.0014294384
0.00134804558
0.00124736109
0.00112831037
0.000994458227
0.000852212791
0.000709967068
0.000576117342
0.000457011581
0.000355904095
0.000273189764
0.000207366672
0.000156031479
0.000116579926
8.65887339e-05
6.39776016e-05
4.70424884e-05
3.44284504e-05
2.50785315e-05
1.81798448e-05
1.31133009e-05
9.4143264e-06
6.73766365e-06
4.81702521e-06
3.44806077e-06
2.47538207e-06
1.78281006e-06
1.28774931e-06
9.32651452e-07
6.77163659e-07
4.9282581e-07
3.59474477e-07
2.62768587e-07
1.92473413e-07
1.41261986e-07
1.03873857e-07
7.65219043e-08
5.6473178e-08
4.17510149e-08
3.09217301e-08
2.29482102e-08
1.70720463e-08
1.27343455e-08
9.52619808e-09
7.14789853e-09
5.37888925e-09
4.05247423e-09
3.05378114e-09
2.3014312e-09
1.73644521e-09
1.31217388e-09
9.93129393e-10
7.52864962e-10
5.71648991e-10
4.34755063e-10
3.3118786e-10
2.52698197e-10
1.93093507e-10
1.477696e-10
1.13254317e-10
8.69302131e-11
6.68235551e-11
5.14436225e-11
3.96624402e-11
3.06252074e-11
2.36835652e-11
1.83449897e-11
1.42341495e-11
1.10645205e-11
8.61801285e-12
6.72803963e-12
5.26648509e-12
4.1340186e-12
3.25500102e-12
2.57153879e-12
2.04069874e-12
1.62786571e-12
1.30571804e-12
1.05358192e-12
8.56695923e-13
7.03627521e-13
5.84177406e-13
4.91007491e-13
4.17989719e-13
3.61713297e-13
3.18519028e-13
2.85680129e-13
2.61215928e-13
2.43430764e-13
2.31523557e-13
2.23717258e-13
2.1934747e-13
2.17574558e-13
2.17868748e-13
2.19857904e-13
2.23050524e-13
2.27391761e-13
2.32682545e-13
2.3866068e-13
2.44208462e-13
2.51456508e-13
2.61448911e-13
2.72875154e-13
2.86337114e-13
3.01971216e-13
3.198022e-13
3.39590807e-13
3.61019216e-13
3.83743935e-13
4.07543246e-13
4.32624733e-13
4.59633821e-13
4.89544496e-13
5.23548169e-13
5.62893381e-13
6.08670544e-13
6.61669929e-13
7.22414245e-13
7.9144461e-13
8.69061969e-13
9.51477328e-13
1.0396452e-12
1.13299553e-12
1.23026577e-12
1.33014539e-12
1.43143298e-12
1.53304647e-12
1.63403929e-12
1.73365476e-12
1.83141117e-12
1.92720475e-12
2.021417e-12
2.11500625e-12
2.20954797e-12
2.30716873e-12
2.41032015e-12
2.52147403e-12
2.64382869e-12
2.76925585e-12
2.90244648e-12
3.03982904e-12
3.17777761e-12
3.31282914e-12
3.44203832e-12
3.56323049e-12
3.67506896e-12
3.776955e-12
3.86880045e-12
3.95065933e-12
4.02209423e-12
4.08088739e-12
4.12011607e-12
8.49773294e-09
2.86032861e-08
6.20829383e-08
1.18705674e-07
2.09408228e-07
3.46563179e-07
5.44235028e-07
8.1854968e-07
1.18639791e-06
1.66693759e-06
2.27916749e-06
3.04438749e-06
3.98244303e-06
5.11517901e-06
6.46216675e-06
8.04346018e-06
9.87749906e-06
1.19802286e-05
1.43678463e-05
1.7052735e-05
2.00479164e-05
2.3363299e-05
2.70076724e-05
3.09885604e-05
3.53095728e-05
3.99783154e-05
4.49914915e-05
5.03556456e-05
5.60567704e-05
6.20927603e-05
6.84504091e-05
7.5115812e-05
8.2071077e-05
8.93015943e-05
9.67916415e-05
0.000104531931
0.000112515692
0.000120740228
0.000129207032
0.000137913056
0.000146860187
0.000156042205
0.000165461464
0.00017510655
0.000184999089
0.000195133258
0.000205516555
0.000216159041
0.000227071995
0.000238267766
0.000249758531
0.000261559978
0.000273690499
0.000286173248
0.000299035954
0.000312310691
0.000326031584
0.000340233205
0.000354947729
0.000370203207
0.000386022599
0.000402424931
0.000419423545
0.000437033607
0.000455262906
0.000474120638
0.000493623313
0.00051378291
0.000534613383
0.000556123885
0.000578319939
0.000601197015
0.00062474068
0.000648928888
0.000673723685
0.000699100846
0.000724987435
0.000751360133
0.000778180162
0.000805416898
0.000833040507
0.000861026697
0.000889353081
0.000917994298
0.000946919703
0.000976093459
0.00100547193
0.00103500666
0.00106464103
0.00109431685
0.00112397467
0.00115355476
0.00118299829
0.00121224789
0.00124124747
0.00126994041
0.00129826836
0.00132617001
0.00135357794
0.0013804178
0.00140659365
0.00143199868
0.00145650149
0.00147994604
0.00150214888
0.00152289203
0.00154190612
0.0015588596
0.00157333736
0.00158482687
0.00159269483
0.00159614987
0.00159420734
0.00158565061
0.00156900037
0.00154250368
0.00150416219
0.00145184645
0.00138354112
0.0012977668
0.00119420082
0.00107439486
0.000942334531
0.000804405674
0.00066841341
0.000541763187
0.00042978573
0.000335027078
0.000257562556
0.000195865624
0.000147666765
0.000110547032
8.2264367e-05
6.08930408e-05
4.48515051e-05
3.28787025e-05
2.39871209e-05
1.74151766e-05
1.25808409e-05
9.05050085e-06
6.49313968e-06
4.65409695e-06
3.3402619e-06
2.40362981e-06
1.73449909e-06
1.25492099e-06
9.10180897e-07
6.61689253e-07
4.82113446e-07
3.5202435e-07
2.57565741e-07
1.88826282e-07
1.38696574e-07
1.02063607e-07
7.52407431e-08
5.55639882e-08
4.1104274e-08
3.04604317e-08
2.26166632e-08
1.68333625e-08
1.25625374e-08
9.40251497e-09
7.05878345e-09
5.3146241e-09
4.00655558e-09
3.02061944e-09
2.27729032e-09
1.71869041e-09
1.29912422e-09
9.83536234e-10
7.45807211e-10
5.66450098e-10
4.30919738e-10
3.283557e-10
2.50602481e-10
1.91535597e-10
1.46611572e-10
1.12392198e-10
8.62873158e-11
6.63433795e-11
5.10844777e-11
3.93934943e-11
3.04235951e-11
2.35322919e-11
1.82314307e-11
1.41489278e-11
1.10006306e-11
8.57019422e-12
6.69228118e-12
5.23982882e-12
4.11445095e-12
3.24044223e-12
2.56096959e-12
2.03312139e-12
1.62261652e-12
1.30226729e-12
1.05154525e-12
8.55715552e-13
7.03497156e-13
5.84720627e-13
4.92124347e-13
4.19561301e-13
3.63636723e-13
3.2075663e-13
2.88175522e-13
2.63958609e-13
2.46388825e-13
2.34694057e-13
2.27071936e-13
2.22871085e-13
2.21297165e-13
2.21796226e-13
2.24016228e-13
2.2740807e-13
2.31937596e-13
2.37442829e-13
2.43677365e-13
2.49787111e-13
2.57203167e-13
2.670951e-13
2.78674876e-13
2.92316401e-13
3.08137652e-13
3.26156103e-13
3.46147997e-13
3.67798203e-13
3.90771843e-13
4.14856861e-13
4.40271117e-13
4.67667062e-13
4.98011457e-13
5.32475391e-13
5.72282324e-13
6.18500619e-13
6.71900379e-13
7.32988153e-13
8.02315975e-13
8.80497079e-13
9.6285049e-13
1.05106395e-12
1.14447117e-12
1.2417598e-12
1.34162579e-12
1.44288791e-12
1.54448049e-12
1.64546755e-12
1.74509883e-12
1.84289605e-12
1.93875596e-12
2.03305686e-12
2.12674894e-12
2.22139303e-12
2.31909337e-12
2.42226899e-12
2.53333729e-12
2.65480274e-12
2.78045586e-12
2.9133715e-12
3.05026819e-12
3.18764937e-12
3.3221081e-12
3.45073643e-12
3.57138516e-12
3.68273314e-12
3.7841892e-12
3.87566673e-12
3.95721764e-12
4.0284019e-12
4.08700396e-12
4.12613526e-12
3.41337575e-07
9.35797974e-07
1.83660318e-06
3.12218388e-06
4.86649921e-06
7.13090533e-06
9.94516238e-06
1.33202961e-05
1.72510649e-05
2.17337183e-05
2.67604318e-05
3.23243038e-05
3.83996499e-05
4.49592951e-05
5.19552215e-05
5.93473919e-05
6.70825535e-05
7.51206226e-05
8.34326395e-05
9.19899459e-05
0.000100771698
0.000109747959
0.000118899029
0.000128193256
0.000137618382
0.000147153577
0.000156789031
0.00016652076
0.000176314195
0.00018616798
0.000196066395
0.000205994868
0.000215945862
0.000225921016
0.000235929678
0.000245987356
0.000256108285
0.000266305994
0.000276585125
0.000286942908
0.000297375941
0.000307879649
0.000318458864
0.000329111036
0.000339866036
0.000350723273
0.00036169161
0.000372777795
0.000383986751
0.000395322225
0.000406791105
0.000418406893
0.000430189842
0.00044216842
0.000454375068
0.000466844231
0.000479607663
0.000492692744
0.000506121653
0.000519911071
0.000534076847
0.000548632717
0.000563594186
0.000578977832
0.000594802374
0.000611090082
0.000627868647
0.000645165394
0.000663009124
0.000681424812
0.000700432268
0.000720041118
0.00074025124
0.000761050723
0.000782417806
0.000804331619
0.000826749474
0.000849655681
0.000873027468
0.000896845123
0.000921095382
0.00094576015
0.000970816811
0.000996239271
0.00102199025
0.00104802814
0.00107430055
0.00110075209
0.00112732421
0.00115395728
0.00118059336
0.00120717505
0.00123364529
0.0012599472
0.00128602216
0.00131180684
0.00133723251
0.00136222415
0.00138669675
0.00141055188
0.00143367268
0.00145592643
0.00147715597
0.00149717828
0.00151578596
0.00153273003
0.00154770299
0.00156032668
0.00157013355
0.001576558
0.00157891949
0.00157638012
0.00156791957
0.00155231389
0.00152812647
0.00149372756
0.00144735455
0.00138727056
0.00131204013
0.00122094108
0.00111450479
0.000995040738
0.000866911894
0.000736232581
0.000609816252
0.000493668562
0.000391804629
0.000305923283
0.000235753107
0.000179780722
0.000135937442
0.000102064292
7.61674901e-05
5.65330138e-05
4.17472248e-05
3.06783534e-05
2.24346906e-05
1.6326024e-05
1.18249033e-05
8.53414363e-06
6.14425302e-06
4.42119761e-06
3.1853231e-06
2.29980894e-06
1.66424627e-06
1.20700605e-06
8.77288063e-07
6.3898301e-07
4.66362548e-07
3.4105056e-07
2.49890032e-07
1.83438097e-07
1.34901644e-07
9.93826389e-08
7.33413135e-08
5.42146898e-08
4.01436281e-08
2.97746986e-08
2.2124348e-08
1.64785481e-08
1.23069597e-08
9.21840676e-09
6.92603364e-09
5.21879925e-09
3.93793167e-09
2.97097856e-09
2.2411145e-09
1.69208167e-09
1.27956355e-09
9.69153173e-10
7.35222302e-10
5.58650348e-10
4.25163576e-10
3.24104005e-10
2.47448068e-10
1.89194209e-10
1.44871171e-10
1.11096171e-10
8.53205912e-11
6.56211525e-11
5.05441257e-11
3.8988748e-11
3.0120194e-11
2.33046955e-11
1.80605263e-11
1.40205569e-11
1.09044062e-11
8.49834144e-12
6.63863729e-12
5.19971248e-12
4.08460649e-12
3.21862268e-12
2.54530064e-12
2.02189899e-12
1.61468183e-12
1.29699556e-12
1.04858037e-12
8.54467205e-13
7.03429611e-13
5.85548871e-13
4.93807468e-13
4.22048335e-13
3.66697372e-13
3.24234702e-13
2.9201042e-13
2.68165042e-13
2.50973742e-13
2.3958941e-13
2.3223506e-13
2.28300691e-13
2.27025309e-13
2.27849013e-13
2.3039463e-13
2.34110876e-13
2.3894643e-13
2.44771575e-13
2.51370368e-13
2.5815818e-13
2.65966522e-13
2.75813425e-13
2.87609689e-13
3.0151487e-13
3.17616764e-13
3.35936585e-13
3.56238329e-13
3.78213988e-13
4.01551466e-13
4.26059662e-13
4.51970626e-13
4.79939721e-13
5.10926509e-13
5.46077675e-13
5.86580085e-13
6.33463957e-13
6.87466411e-13
7.49070051e-13
8.1884097e-13
8.97931401e-13
9.8011439e-13
1.06841132e-12
1.16191168e-12
1.25922814e-12
1.35907191e-12
1.46029388e-12
1.5618532e-12
1.66282952e-12
1.76248198e-12
1.86033722e-12
1.95629261e-12
2.05072156e-12
2.14456195e-12
2.23935279e-12
2.33716515e-12
2.44036981e-12
2.55127797e-12
2.6715426e-12
2.79750087e-12
2.92992895e-12
3.06608378e-12
3.20260885e-12
3.33617446e-12
3.46392765e-12
3.58375714e-12
3.69436484e-12
3.7951709e-12
3.88609158e-12
3.96717577e-12
4.03797932e-12
4.09628919e-12
4.1352549e-12
1.32107671e-05
2.4020381e-05
3.59756738e-05
4.9409537e-05
6.47953181e-05
8.1520647e-05
9.86512975e-05
0.000115560414
0.000132035558
0.000148150398
0.000164085602
0.000179850113
0.000195274027
0.000210173263
0.000224400865
0.000237926105
0.000250862813
0.000263401865
0.000275719173
0.000287888737
0.000299905071
0.000311713785
0.000323265856
0.000334536848
0.000345554764
0.000356352352
0.000367011515
0.0003775138
0.000387872606
0.000398057281
0.00040803918
0.000417807755
0.000427390231
0.000436844753
0.000446239409
0.000455631938
0.000465048931
0.000474490919
0.000483933123
0.00049335217
0.000502739325
0.000512110753
0.000521503141
0.000530949794
0.000540495069
0.000550135249
0.000559857733
0.000569639836
0.000579460393
0.000589311073
0.000599203116
0.000609168614
0.000619251754
0.000629502099
0.000639959317
0.000650649911
0.000661581987
0.000672752311
0.000684153686
0.000695780662
0.000707638672
0.000719734719
0.000732086538
0.000744708367
0.00075763358
0.000770895315
0.000784530221
0.000798580596
0.000813089285
0.000828091041
0.000843612024
0.000859663332
0.000876243726
0.000893338803
0.000910930435
0.000929001379
0.000947536319
0.000966532945
0.000985989345
0.00100590614
0.00102628298
0.00104710968
0.00106836328
0.00109001028
0.00111200324
0.00113429163
0.00115681419
0.00117951047
0.0012023229
0.0012251954
0.00124807465
0.00127090723
0.00129363798
0.00131620816
0.00133855225
0.00136059499
0.00138225126
0.00140342754
0.00142401026
0.00144387191
0.00146287082
0.00148084091
0.00149759298
0.00151291178
0.00152656367
0.00153826296
0.00154764984
0.00155428533
0.00155764175
0.00155709988
0.00155194421
0.00154130366
0.00152415281
0.00149931583
0.00146548668
0.00142128724
0.00136535219
0.00129653308
0.00121417872
0.0011184854
0.00101089121
0.000894343408
0.00077327992
0.000653138759
0.000539356046
0.000436322084
0.000346683284
0.000271358737
0.000209803623
0.000160584447
0.000121888916
9.18666828e-05
6.8811338e-05
5.12543439e-05
3.79768421e-05
2.79985901e-05
2.05395861e-05
1.49981804e-05
1.0903981e-05
7.90269827e-06
5.71686377e-06
4.13449328e-06
2.99294707e-06
2.1698042e-06
1.57572028e-06
1.14633619e-06
8.35476695e-07
6.10026016e-07
4.4621931e-07
3.26982173e-07
2.40028335e-07
1.76501826e-07
1.3000771e-07
9.59196669e-08
7.08843127e-08
5.24671197e-08
3.88976909e-08
2.888431e-08
2.14857794e-08
1.6017737e-08
1.19747503e-08
8.97888707e-09
6.75315381e-09
5.09383793e-09
3.84816312e-09
2.90589473e-09
2.19361551e-09
1.6571394e-09
1.25387043e-09
9.50254368e-10
7.21308141e-10
5.48392365e-10
4.17589246e-10
3.18507303e-10
2.43290875e-10
1.86108871e-10
1.42576677e-10
1.09386802e-10
8.40450793e-11
6.46679105e-11
4.98306721e-11
3.84541585e-11
2.97194192e-11
2.30040938e-11
1.78347697e-11
1.38508754e-11
1.07772153e-11
8.40352508e-12
6.56797667e-12
5.14679611e-12
4.04510783e-12
3.18989758e-12
2.52486932e-12
2.00733392e-12
1.60428514e-12
1.29004165e-12
1.04481617e-12
8.53094796e-13
7.03549912e-13
5.8678656e-13
4.96137112e-13
4.25541954e-13
3.70971292e-13
3.2902147e-13
2.97274152e-13
2.73907421e-13
2.57270343e-13
2.46260107e-13
2.3926211e-13
2.3572048e-13
2.34838096e-13
2.36105902e-13
2.39036895e-13
2.43220868e-13
2.48506822e-13
2.54760055e-13
2.61824567e-13
2.69220302e-13
2.77571386e-13
2.8767609e-13
2.99786531e-13
3.14034035e-13
3.30502656e-13
3.49245972e-13
3.69967069e-13
3.92366267e-13
4.16171912e-13
4.41232806e-13
4.67796948e-13
4.96515347e-13
5.28339778e-13
5.64391935e-13
6.05812516e-13
6.53575435e-13
7.08371268e-13
7.70651264e-13
8.40983316e-13
9.21418242e-13
1.00319409e-12
1.09163901e-12
1.18527379e-12
1.28262403e-12
1.38243278e-12
1.48359646e-12
1.58510699e-12
1.68606419e-12
1.7857391e-12
1.88366461e-12
1.97973874e-12
2.07432833e-12
2.16835497e-12
2.26332895e-12
2.36127804e-12
2.46451139e-12
2.57522493e-12
2.69461202e-12
2.82031829e-12
2.95201719e-12
3.08717398e-12
3.22256161e-12
3.35494296e-12
3.48153572e-12
3.60027831e-12
3.70990281e-12
3.80984429e-12
3.90002337e-12
3.98048529e-12
4.05078038e-12
4.10869817e-12
4.14743302e-12
0.000292436487
0.000318396822
0.000335180339
0.000363738783
0.000398606044
0.000422318284
0.000432643941
0.000436952789
0.000441404115
0.000448888399
0.000459992873
0.000471838603
0.000482059643
0.000489847006
0.000495663432
0.000500635985
0.000506064173
0.000512829847
0.000520889487
0.000529400722
0.000537612322
0.000545126986
0.000551939259
0.000558290111
0.000564540124
0.000570977582
0.000577733019
0.000584646225
0.000591476729
0.000598029739
0.000604250063
0.000610216911
0.000616111314
0.000622133657
0.000628426569
0.000635021067
0.000641829839
0.000648718284
0.000655573718
0.000662362092
0.000669128141
0.000675970158
0.000682996867
0.000690273151
0.000697802668
0.000705508449
0.000713297169
0.000721089186
0.000728848056
0.00073658924
0.00074437201
0.000752280701
0.000760396702
0.000768780365
0.000777448273
0.000786382898
0.000795539184
0.000804872053
0.000814352943
0.000823975675
0.000833757079
0.000843709687
0.000853857685
0.000864222325
0.000874845446
0.000885770749
0.000897045469
0.000908718069
0.000920835229
0.000933427136
0.000946511063
0.000960081901
0.000974123403
0.00098861066
0.00100352492
0.00101885732
0.00103461417
0.00105080903
0.00106745791
0.00108457608
0.00110216818
0.00112022242
0.00113870869
0.00115758209
0.00117678516
0.00119625875
0.00121593792
0.00123576363
0.00125568261
0.00127564456
0.00129560122
0.00131550162
0.00133529001
0.00135490211
0.001374263
0.00139328496
0.00141186658
0.00142989767
0.00144723949
0.00146374802
0.00147925689
0.0014935773
0.00150649717
0.0015177796
0.00152717916
0.00153438347
0.00153898827
0.00154051068
0.00153838884
0.00153198459
0.00152059263
0.00150334663
0.00147926627
0.00144727857
0.0014062575
0.00135510825
0.00129284209
0.00121880916
0.00113294458
0.00103603231
0.000929969788
0.000817865061
0.000703886442
0.000592761034
0.000488865874
0.00039555936
0.000314697813
0.000246842182
0.000191347248
0.000146877221
0.000111812535
8.45194893e-05
6.34877389e-05
4.74182931e-05
3.5226267e-05
2.60375673e-05
1.91512667e-05
1.402417e-05
1.02285137e-05
7.43898042e-06
5.40158756e-06
3.92109093e-06
2.8481463e-06
2.07104054e-06
1.50799105e-06
1.09965621e-06
8.0315582e-07
5.87552549e-07
4.3053208e-07
3.15992497e-07
2.32303763e-07
1.71055359e-07
1.2615634e-07
9.31888734e-08
6.89431551e-08
5.10841271e-08
3.79100407e-08
2.81774994e-08
2.09785923e-08
1.56517122e-08
1.17106394e-08
8.7882638e-09
6.61538921e-09
4.99408684e-09
3.77622789e-09
2.85359361e-09
2.15537722e-09
1.62900457e-09
1.23317611e-09
9.35025525e-10
7.10089627e-10
5.40116454e-10
4.11474192e-10
3.13987404e-10
2.39931674e-10
1.83613343e-10
1.4071968e-10
1.08002618e-10
8.30116941e-11
6.38952977e-11
4.92522394e-11
3.80205939e-11
2.93941972e-11
2.27600565e-11
1.76515849e-11
1.37133397e-11
1.06740905e-11
8.32648002e-12
6.51057574e-12
5.10406814e-12
4.01339535e-12
3.16669169e-12
2.50820811e-12
1.99557132e-12
1.59617095e-12
1.28472206e-12
1.04183227e-12
8.51953878e-13
7.03775145e-13
5.88086915e-13
4.98302084e-13
4.28492241e-13
3.74526893e-13
3.33079135e-13
3.01785776e-13
2.78806314e-13
2.6256285e-13
2.51863603e-13
2.451732e-13
2.41968175e-13
2.41419084e-13
2.43036283e-13
2.46298567e-13
2.50854014e-13
2.56519493e-13
2.63142272e-13
2.70581004e-13
2.78404805e-13
2.87177445e-13
2.97591346e-13
3.09994449e-13
3.24532015e-13
3.413099e-13
3.60392773e-13
3.81465418e-13
4.04221875e-13
4.28417046e-13
4.53934398e-13
4.81036485e-13
5.10372379e-13
5.42882548e-13
5.79665939e-13
6.21824199e-13
6.70289946e-13
7.25718833e-13
7.8853531e-13
8.59279952e-13
9.40989106e-13
1.02218624e-12
1.11080982e-12
1.20456121e-12
1.3019322e-12
1.40170474e-12
1.5028151e-12
1.60428127e-12
1.70521863e-12
1.80490746e-12
1.90288541e-12
1.99905072e-12
2.0937646e-12
2.1879351e-12
2.283049e-12
2.38109902e-12
2.48434578e-12
2.5949058e-12
2.71379096e-12
2.83909664e-12
2.97015149e-12
3.10448092e-12
3.23893749e-12
3.37035301e-12
3.49600044e-12
3.61385791e-12
3.72268201e-12
3.82191977e-12
3.91149486e-12
3.99144954e-12
4.06132994e-12
4.11892726e-12
4.15747114e-12
2.26114676e-34
1.92001926e-34
1.89397353e-34
2.05183486e-34
1.5432378e-34
1.08384637e-34
7.92109756e-35
6.24173088e-35
4.93402773e-35
3.08388396e-35
1.95753751e-35
1.62962243e-35
1.20356457e-35
8.9775254e-36
6.93903121e-36
4.83463883e-36
3.34708003e-36
2.88711457e-36
2.51110922e-36
2.14128852e-36
1.176079e-36
8.01705684e-37
6.28270311e-37
7.51430227e-36
4.94193998e-34
3.41054893e-32
2.35725281e-30
1.63099997e-28
1.13032471e-26
7.86145685e-25
5.48952255e-23
3.84373896e-21
2.69897227e-19
1.90493105e-17
1.35298659e-15
9.69229238e-14
7.05317313e-12
5.27083022e-10
4.18550546e-08
3.61733232e-06
1.83592598e-34
2.28571084e-34
2.4893351e-34
1.70102128e-34
1.31693193e-34
1.12782661e-34
9.25116966e-35
7.79077182e-35
6.43619169e-35
4.85588489e-35
3.58800843e-35
3.05000176e-35
2.12760322e-35
1.45786338e-35
1.22031894e-35
9.04970944e-36
8.17483282e-36
6.15948196e-36
5.00765068e-36
4.24188393e-36
2.84419662e-36
2.76549569e-36
1.71245037e-36
2.27933562e-36
8.29066695e-35
5.66022444e-33
3.90663325e-31
2.70192624e-29
1.87430032e-27
1.30423979e-25
9.09495862e-24
6.35050591e-22
4.44134877e-20
3.11079525e-18
2.17835232e-16
1.52258133e-14
1.06071329e-12
7.33689241e-11
4.99810171e-09
3.22173865e-07
3.90541432e-35
8.98691651e-35
1.05073855e-34
1.25205036e-34
1.18523023e-34
1.16909513e-34
9.86700256e-35
1.01622341e-34
8.33439824e-35
7.27456363e-35
5.7777067e-35
4.93852451e-35
3.68160825e-35
3.32566935e-35
2.83867779e-35
2.0101352e-35
1.56431534e-35
1.18647669e-35
1.01058595e-35
8.7517517e-36
6.51707779e-36
5.37445829e-36
4.9123375e-36
3.75660033e-36
1.81605195e-35
1.04404216e-33
7.17252539e-32
4.94965243e-30
3.42519994e-28
2.37293487e-26
1.64117612e-24
1.13141535e-22
7.76710939e-21
5.28986035e-19
3.55492374e-17
2.34251192e-15
1.49848252e-13
9.17501769e-12
5.20166318e-10
2.57666373e-08
4.25712994e-35
5.57767708e-35
9.0113301e-35
1.01148124e-34
1.19139278e-34
1.01964474e-34
1.0394316e-34
9.83912364e-35
8.34624203e-35
8.48683868e-35
6.62985695e-35
5.56650255e-35
4.88635704e-35
4.08283221e-35
3.26583016e-35
2.6891833e-35
2.20755416e-35
1.82958019e-35
1.5269155e-35
1.29722898e-35
1.01514217e-35
8.19989513e-36
6.88385082e-36
5.28967575e-36
7.37448146e-36
2.03870953e-34
1.36893901e-32
9.36077041e-31
6.4007599e-29
4.36530563e-27
2.9591527e-25
1.98777271e-23
1.31828109e-21
8.57418618e-20
5.42781191e-18
3.3133269e-16
1.92093201e-14
1.03597938e-12
4.96288491e-11
1.97576745e-09
6.71718546e-35
9.34003593e-35
1.18965421e-34