/*--------------------------------*- C++ -*----------------------------------*\
  =========                 |
  \\      /  F ield         | OpenFOAM: The Open Source CFD Toolbox
   \\    /   O peration     | Website:  https://openfoam.org
    \\  /    A nd           | Version:  6
     \\/     M anipulation  |
\*---------------------------------------------------------------------------*/
FoamFile
{
    version     2.0;
    format      ascii;
    class       volScalarField;
    location    "25000";
    object      C3H7;
}
// * * * * * * * * * * * * * * * * * * * * * * * * * * * * * * * * * * * * * //

dimensions      [0 0 0 0 0 0 0];

internalField   nonuniform List<scalar> 
44870
(
1.15703606e-96
3.50535272e-96
7.29803387e-96
9.35037415e-96
3.97981145e-95
3.11437664e-93
3.9881054e-91
5.22219394e-89
6.94050722e-87
9.36769653e-85
1.28489736e-82
1.79201324e-80
2.54244189e-78
3.67074341e-76
5.39423234e-74
8.06919186e-72
1.22861868e-69
1.90393172e-67
3.00189268e-65
4.81447886e-63
7.8506306e-61
1.30113021e-58
2.19056446e-56
3.74498232e-54
6.49733069e-52
1.14352156e-49
2.04009129e-47
3.68786863e-45
6.74786807e-43
1.24912362e-40
2.33544912e-38
4.40622465e-36
8.3638001e-34
1.59389814e-31
3.03073102e-29
5.71504889e-27
1.05281585e-24
1.85754537e-22
2.9566653e-20
3.98741139e-18
4.95105989e-97
1.19179831e-96
5.74094121e-96
8.49808297e-96
3.79499564e-95
2.24711171e-93
2.9063976e-91
3.88853939e-89
5.32640656e-87
7.4771282e-85
1.07656955e-82
1.59026226e-80
2.40968265e-78
3.74363487e-76
5.9570532e-74
9.70021281e-72
1.61388304e-69
2.74055337e-67
4.74178233e-65
8.35203976e-63
1.49508737e-60
2.7185462e-58
5.01284885e-56
9.37391638e-54
1.77453107e-51
3.40310245e-49
6.59783582e-47
1.29510013e-44
2.56723234e-42
5.15168027e-40
1.04290148e-37
2.13738641e-35
4.41317954e-33
9.22556195e-31
1.93775995e-28
4.11104956e-26
8.6854679e-24
1.83192218e-21
3.61378846e-19
6.78721122e-17
1.78638104e-96
8.35442821e-96
1.64463226e-95
2.17283679e-95
4.24748055e-95
1.04328939e-93
1.42597026e-91
2.14262001e-89
3.38375106e-87
5.59443426e-85
9.63229466e-83
1.71718465e-80
3.15155275e-78
5.92427551e-76
1.13511307e-73
2.21117952e-71
4.36110287e-69
8.69978766e-67
1.75020621e-64
3.55060398e-62
7.24916756e-60
1.4906301e-57
3.08050318e-55
6.41055433e-53
1.33952308e-50
2.8201105e-48
5.95772783e-46
1.26928686e-43
2.71166902e-41
5.85138742e-39
1.26501496e-36
2.76763695e-34
6.05822507e-32
1.34578212e-29
2.98871375e-27
6.75561605e-25
1.52476196e-22
3.53117127e-20
7.85073276e-18
1.79407509e-15
1.66698371e-96
5.25468263e-96
1.27639517e-95
2.44132813e-95
4.19988426e-95
6.42239296e-94
1.26679172e-91
2.81650778e-89
6.42452098e-87
1.48409651e-84
3.44426669e-82
7.991388e-80
1.84784338e-77
4.25275976e-75
9.73066125e-73
2.21394198e-70
5.0077318e-68
1.12704525e-65
2.52360772e-63
5.62700722e-61
1.25020324e-58
2.76996712e-56
6.12157629e-54
1.3510761e-51
2.97722027e-49
6.56128217e-47
1.44506439e-44
3.18682802e-42
7.02754495e-40
1.5542468e-37
3.43821374e-35
7.63974322e-33
1.6978943e-30
3.79624203e-28
8.48903116e-26
1.90880818e-23
4.28101987e-21
9.61597922e-19
2.09046298e-16
4.42143317e-14
7.46963922e-96
1.7655992e-95
2.28738722e-95
1.85051305e-95
3.89894513e-95
3.00353814e-93
8.75457468e-91
2.50730077e-88
6.94099938e-86
1.86342643e-83
4.86713131e-81
1.24049638e-78
3.09356905e-76
7.56715798e-74
1.81963444e-71
4.3100239e-69
1.00739517e-66
2.32722975e-64
5.3212921e-62
1.20583439e-59
2.71102711e-57
6.0533304e-55
1.34353217e-52
2.96645998e-50
6.52020043e-48
1.42759544e-45
3.11531154e-43
6.77773051e-41
1.4710307e-38
3.18564528e-36
6.88680666e-34
1.48648239e-31
3.2046701e-29
6.90128489e-27
1.48504303e-24
3.19316508e-22
6.8626313e-20
1.4740961e-17
3.16502715e-15
6.8291395e-13
1.28681016e-16
7.03019977e-16
2.2139059e-15
5.55295454e-15
1.21426296e-14
2.40177868e-14
4.38541855e-14
7.50973375e-14
1.21831397e-13
1.89249549e-13
2.83157878e-13
4.11079107e-13
5.81108462e-13
8.03843741e-13
1.09106494e-12
1.45683865e-12
1.91852787e-12
2.49490242e-12
3.21192579e-12
4.09584256e-12
5.18290889e-12
6.5128742e-12
8.13535384e-12
1.01104458e-11
1.25095971e-11
1.54220392e-11
1.89412244e-11
2.32119593e-11
2.83551737e-11
3.4583806e-11
4.20921369e-11
5.11440608e-11
6.20508506e-11
7.51333404e-11
9.08474657e-11
1.09611433e-10
1.32042032e-10
1.58703519e-10
1.90386178e-10
2.27874371e-10
2.72180112e-10
3.24400425e-10
3.85805889e-10
4.57716319e-10
5.41819461e-10
6.39613192e-10
7.52785773e-10
8.83138701e-10
1.03260566e-09
1.20329458e-09
1.39746194e-09
1.6175698e-09
1.86618675e-09
2.14605592e-09
2.45992056e-09
2.81058158e-09
3.20069645e-09
3.63283834e-09
4.10939884e-09
4.63267882e-09
5.20495584e-09
5.82854119e-09
6.50606089e-09
7.24042416e-09
8.03545565e-09
8.8955559e-09
9.82642178e-09
1.08340264e-08
1.19245677e-08
1.31020325e-08
1.43662312e-08
1.57084521e-08
1.71059585e-08
1.85152563e-08
1.98630033e-08
2.10398106e-08
2.1897671e-08
2.22691698e-08
2.20046389e-08
2.1033097e-08
1.94160328e-08
1.73496945e-08
1.50988657e-08
1.29031417e-08
1.09167273e-08
9.20452288e-09
7.77022885e-09
6.58733926e-09
5.6193169e-09
4.8298382e-09
4.18676901e-09
3.66316626e-09
3.23698534e-09
2.89050479e-09
2.60964102e-09
2.38327482e-09
2.20268161e-09
2.0610729e-09
1.95324731e-09
1.87532836e-09
1.82453571e-09
1.79902064e-09
1.79775882e-09
1.82055643e-09
1.8679761e-09
1.94147554e-09
2.04349169e-09
2.17749514e-09
2.34836187e-09
2.5623713e-09
2.82753257e-09
3.15377789e-09
3.55332014e-09
4.04114541e-09
4.63511781e-09
5.35573414e-09
6.22548735e-09
7.26593954e-09
8.48961163e-09
9.88320556e-09
1.13829629e-08
1.28453285e-08
1.40351115e-08
1.46676661e-08
1.45266194e-08
1.35862816e-08
1.20356143e-08
1.01751004e-08
8.28658304e-09
6.55962999e-09
5.0849641e-09
3.8814318e-09
2.92973538e-09
2.19446279e-09
1.63449226e-09
1.21326426e-09
8.98849655e-10
6.67200766e-10
4.79170571e-10
3.38607742e-10
2.398767e-10
1.70427844e-10
1.21524445e-10
8.69953689e-11
6.24999817e-11
4.50444354e-11
3.25585284e-11
2.3597348e-11
1.71460753e-11
1.24884562e-11
9.11679831e-12
6.6698908e-12
4.88985738e-12
3.59201128e-12
2.64368336e-12
1.94931159e-12
1.43990787e-12
1.06549637e-12
7.89799655e-13
5.86429958e-13
4.36153207e-13
3.24920988e-13
2.42452455e-13
1.81209866e-13
1.35656776e-13
1.0171965e-13
7.63962985e-14
5.74705087e-14
4.33036752e-14
3.26823695e-14
2.47066448e-14
1.87080561e-14
1.41894175e-14
1.07805183e-14
8.2044962e-15
6.25404025e-15
4.7751006e-15
3.65198663e-15
2.79772569e-15
2.14691818e-15
1.65031761e-15
1.27077858e-15
9.80241592e-16
7.57488377e-16
5.86448015e-16
4.54912382e-16
3.53590297e-16
2.75418197e-16
2.15029514e-16
1.68326035e-16
1.32141298e-16
1.04050982e-16
8.22115323e-17
6.52422736e-17
5.20362635e-17
4.17260167e-17
3.36519986e-17
2.73383694e-17
2.24141809e-17
1.85574279e-17
1.5534835e-17
1.31511398e-17
1.12932785e-17
9.84239898e-18
8.7126962e-18
7.83808211e-18
7.16099905e-18
6.65413005e-18
6.26287803e-18
5.96402543e-18
5.72947354e-18
5.54167446e-18
5.38930247e-18
5.25709672e-18
5.14110047e-18
5.03274944e-18
4.92528382e-18
4.79687306e-18
4.68709495e-18
4.61701233e-18
4.55682024e-18
4.51530883e-18
4.49381231e-18
4.48955577e-18
4.49611672e-18
4.50659416e-18
4.51479097e-18
4.51623823e-18
4.51192516e-18
4.50851945e-18
4.51629379e-18
4.54698074e-18
4.61155305e-18
4.71802935e-18
4.87043665e-18
5.06947701e-18
5.31466468e-18
5.60186777e-18
5.91157689e-18
6.24511071e-18
6.59634079e-18
6.95528003e-18
7.31220479e-18
7.65848032e-18
7.98642558e-18
8.28940191e-18
8.56237336e-18
8.8028347e-18
9.01194756e-18
9.19571418e-18
9.36600058e-18
9.54114459e-18
9.74577411e-18
1.00093721e-17
1.03633746e-17
1.08398539e-17
1.14222117e-17
1.21392144e-17
1.29782076e-17
1.39147105e-17
1.49156558e-17
1.59435899e-17
1.69617632e-17
1.79385194e-17
1.88501183e-17
1.96815329e-17
2.04247049e-17
2.10730759e-17
2.16083372e-17
2.19688595e-17
2.6457775e-15
1.33247288e-14
3.76169778e-14
8.65316757e-14
1.75762419e-13
3.24629969e-13
5.54669734e-13
8.91650376e-13
1.36324525e-12
2.00404215e-12
2.84975296e-12
3.94715314e-12
5.34315803e-12
7.09992385e-12
9.28293451e-12
1.19684529e-11
1.52488369e-11
1.9220731e-11
2.40153323e-11
2.97583324e-11
3.66190122e-11
4.47774975e-11
5.44389617e-11
6.58608025e-11
7.92803161e-11
9.50458759e-11
1.13454342e-10
1.34953132e-10
1.59912515e-10
1.88869609e-10
2.22300609e-10
2.60784315e-10
3.04870305e-10
3.5515883e-10
4.12284676e-10
4.76876346e-10
5.49683766e-10
6.31387517e-10
7.228793e-10
8.2491851e-10
9.38510083e-10
1.06447815e-09
1.20382809e-09
1.35728225e-09
1.52610936e-09
1.71106836e-09
1.91317354e-09
2.13355185e-09
2.37344552e-09
2.6342224e-09
2.91734499e-09
3.22440229e-09
3.55706638e-09
3.91715225e-09
4.30657443e-09
4.72740621e-09
5.18178593e-09
5.67194117e-09
6.20007966e-09
6.76840973e-09
7.37908982e-09
8.03431729e-09
8.73638601e-09
9.48781938e-09
1.02915144e-08
1.11504605e-08
1.20679073e-08
1.30462562e-08
1.40861901e-08
1.51843486e-08
1.63307191e-08
1.75045903e-08
1.86699098e-08
1.97698518e-08
2.07230237e-08
2.14216157e-08
2.17408439e-08
2.15626627e-08
2.08127166e-08
1.95016339e-08
1.77442288e-08
1.57323192e-08
1.36723793e-08
1.17266901e-08
9.98869039e-09
8.49166329e-09
7.2307425e-09
6.18245247e-09
5.31728463e-09
4.6060768e-09
4.02267703e-09
3.54481487e-09
3.15399718e-09
2.83517891e-09
2.57626296e-09
2.36761102e-09
2.20160826e-09
2.07230627e-09
1.97515261e-09
1.906783e-09
1.86481427e-09
1.84772399e-09
1.85476809e-09
1.88599717e-09
1.94218053e-09
2.02497871e-09
2.137013e-09
2.28194824e-09
2.46485633e-09
2.6921863e-09
2.97202967e-09
3.31436529e-09
3.73143262e-09
4.23807714e-09
4.85175435e-09
5.59203701e-09
6.47981504e-09
7.53386246e-09
8.76197939e-09
1.01436411e-08
1.16070356e-08
1.30028463e-08
1.40978856e-08
1.46216242e-08
1.43834865e-08
1.33809536e-08
1.18108734e-08
9.96435419e-09
8.10760666e-09
6.41727257e-09
4.97647104e-09
3.80074731e-09
2.87076638e-09
2.15215932e-09
1.60433974e-09
1.19214698e-09
8.8425343e-10
6.5411952e-10
4.68575752e-10
3.31951051e-10
2.35627734e-10
1.67681601e-10
1.19726408e-10
8.58050757e-11
6.17022771e-11
4.45048629e-11
3.21908037e-11
2.33451332e-11
1.69721199e-11
1.23678811e-11
9.03284967e-12
6.61120544e-12
4.84868004e-12
3.56302014e-12
2.62320723e-12
1.93480527e-12
1.42960322e-12
1.05815728e-12
7.84559511e-13
5.82679513e-13
4.33462815e-13
3.22986773e-13
2.41058911e-13
1.8020377e-13
1.34928925e-13
1.01192041e-13
7.60130872e-14
5.71916334e-14
4.31003369e-14
3.25338237e-14
2.45979201e-14
1.86283275e-14
1.41308452e-14
1.0737433e-14
8.17273906e-15
6.23054208e-15
4.75770309e-15
3.63908793e-15
2.78814619e-15
2.13979222e-15
1.64500943e-15
1.26681921e-15
9.77283359e-16
7.55274603e-16
5.8479101e-16
4.53673407e-16
3.52663228e-16
2.74722296e-16
2.14507653e-16
1.67938879e-16
1.31854248e-16
1.03840325e-16
8.20556955e-17
6.51302691e-17
5.19609741e-17
4.1677847e-17
3.36217251e-17
2.73208911e-17
2.24099646e-17
1.85644333e-17
1.554988e-17
1.31705696e-17
1.13163033e-17
9.87002921e-18
8.74390798e-18
7.87178254e-18
7.19592126e-18
6.69072955e-18
6.30110538e-18
6.00336399e-18
5.76995723e-18
5.58299906e-18
5.43190229e-18
5.30046687e-18
5.18495496e-18
5.07719291e-18
4.97041712e-18
4.84097603e-18
4.73137307e-18
4.66246776e-18
4.60141246e-18
4.55927076e-18
4.53717059e-18
4.53226327e-18
4.53823819e-18
4.54818574e-18
4.55593554e-18
4.55707429e-18
4.55265005e-18
4.54935915e-18
4.55744874e-18
4.58856227e-18
4.6535926e-18
4.76051336e-18
4.91331596e-18
5.11267571e-18
5.35816715e-18
5.64655374e-18
5.95579456e-18
6.28919344e-18
6.64042546e-18
6.99934105e-18
7.35622616e-18
7.70249836e-18
8.03051217e-18
8.33364354e-18
8.60686035e-18
8.84765891e-18
9.05720535e-18
9.24151231e-18
9.41246402e-18
9.58842448e-18
9.79405181e-18
1.00588449e-17
1.04141946e-17
1.08929938e-17
1.1475639e-17
1.21942884e-17
1.30345899e-17
1.39721164e-17
1.49738231e-17
1.60022771e-17
1.70207691e-17
1.79977021e-17
1.8909401e-17
1.97408951e-17
2.04841684e-17
2.11326877e-17
2.16681478e-17
2.20290566e-17
9.92090376e-14
4.82958861e-13
1.26506909e-12
2.6909553e-12
4.99271694e-12
8.36402338e-12
1.29678827e-11
1.89606091e-11
2.64781246e-11
3.56805648e-11
4.67124523e-11
5.97579729e-11
7.4977783e-11
9.25775048e-11
1.12749359e-10
1.35734224e-10
1.61805775e-10
1.91271381e-10
2.24520573e-10
2.61955471e-10
3.04043908e-10
3.5124756e-10
4.04044833e-10
4.62938926e-10
5.28417882e-10
6.01121109e-10
6.8157171e-10
7.70550612e-10
8.68517586e-10
9.76183774e-10
1.09402573e-09
1.22250957e-09
1.36197229e-09
1.51281797e-09
1.67541507e-09
1.85024937e-09
2.03787477e-09
2.23885197e-09
2.45384966e-09
2.68328558e-09
2.92772975e-09
3.18741152e-09
3.46284583e-09
3.75407757e-09
4.06216363e-09
4.3873395e-09
4.73021832e-09
5.09144534e-09
5.47163023e-09
5.87133778e-09
6.29105215e-09
6.73131603e-09
7.19271824e-09
7.6759787e-09
8.18191274e-09
8.71140357e-09
9.26527431e-09
9.84422643e-09
1.04487496e-08
1.10791089e-08
1.17353675e-08
1.24174716e-08
1.31252002e-08
1.38582389e-08
1.46155472e-08
1.53951507e-08
1.61931286e-08
1.70023391e-08
1.78106498e-08
1.85991638e-08
1.93397319e-08
1.99933256e-08
2.0509476e-08
2.08269817e-08
2.08807517e-08
2.06086419e-08
1.99716037e-08
1.89676543e-08
1.764282e-08
1.60863829e-08
1.44111318e-08
1.27272536e-08
1.11229046e-08
9.65570266e-09
8.3543426e-09
7.22529209e-09
6.26096158e-09
5.44609488e-09
4.76260492e-09
4.1923275e-09
3.71840384e-09
3.32600103e-09
3.00245389e-09
2.73718135e-09
2.52148712e-09
2.34832477e-09
2.21206118e-09
2.10827747e-09
2.03362896e-09
1.98571911e-09
1.96292708e-09
1.96436943e-09
1.98986237e-09
2.03994663e-09
2.11580313e-09
2.21949446e-09
2.35401946e-09
2.52345442e-09
2.7332464e-09
2.99016116e-09
3.30238256e-09
3.6799384e-09
4.13495699e-09
4.68181915e-09
5.33684423e-09
6.11715219e-09
7.03966726e-09
8.11654212e-09
9.34481768e-09
1.06881941e-08
1.20591488e-08
1.32994989e-08
1.41849785e-08
1.4478018e-08
1.40428608e-08
1.29212878e-08
1.13217334e-08
9.51226664e-09
7.72639297e-09
6.11488979e-09
4.74606128e-09
3.6290263e-09
2.74495798e-09
2.06183608e-09
1.53979063e-09
1.14698448e-09
8.53006643e-10
6.24715067e-10
4.46240544e-10
3.17980705e-10
2.26662455e-10
1.61843775e-10
1.15892774e-10
8.32585477e-11
5.99911314e-11
4.33450556e-11
3.13990678e-11
2.28013425e-11
1.65966139e-11
1.21073324e-11
8.85127879e-12
6.48417058e-12
4.75947725e-12
3.50017327e-12
2.57879111e-12
1.90331948e-12
1.40722482e-12
1.04221076e-12
7.73167989e-13
5.74522658e-13
4.27608912e-13
3.18776457e-13
2.3802431e-13
1.78012062e-13
1.33342795e-13
1.00041889e-13
7.51774457e-14
5.65833256e-14
4.26566695e-14
3.22096205e-14
2.43605657e-14
1.84542303e-14
1.40029148e-14
1.0643312e-14
8.1033534e-15
6.17917786e-15
4.71967387e-15
3.61088842e-15
2.76720056e-15
2.12420929e-15
1.63339871e-15
1.25815631e-15
9.70811675e-16
7.5043413e-16
5.81167425e-16
4.50960142e-16
3.50632118e-16
2.7320254e-16
2.13371655e-16
1.67092444e-16
1.31232492e-16
1.03378681e-16
8.17207872e-17
6.48902808e-17
5.17945976e-17
4.15681181e-17
3.3556333e-17
2.72883559e-17
2.24035768e-17
1.85784182e-17
1.55809352e-17
1.32147565e-17
1.13701007e-17
9.93201082e-18
8.81216229e-18
7.94557953e-18
7.27396598e-18
6.77263358e-18
6.38582936e-18
6.09020515e-18
5.85943661e-18
5.67481983e-18
5.52636553e-18
5.39650571e-18
5.28203101e-18
5.17556365e-18
5.07051205e-18
4.94862179e-18
4.83859105e-18
4.76278638e-18
4.70019085e-18
4.65674041e-18
4.63330565e-18
4.62695266e-18
4.63159707e-18
4.6403226e-18
4.64703353e-18
4.64742112e-18
4.64266208e-18
4.63953659e-18
4.64823333e-18
4.68023214e-18
4.74625357e-18
4.85415778e-18
5.00784398e-18
5.20792341e-18
5.45412648e-18
5.74525597e-18
6.05332269e-18
6.38647262e-18
6.73774616e-18
7.09662765e-18
7.45343765e-18
7.79971321e-18
8.12788694e-18
8.43136567e-18
8.70512416e-18
8.94666075e-18
9.15715033e-18
9.34262778e-18
9.51501761e-18
9.69274324e-18
9.90053274e-18
1.01679239e-17
1.05261756e-17
1.10046464e-17
1.15932336e-17
1.23157219e-17
1.31589085e-17
1.40987129e-17
1.51021262e-17
1.61317568e-17
1.71509814e-17
1.81283283e-17
1.90402621e-17
1.98719379e-17
2.06154323e-17
2.12642623e-17
2.1800117e-17
2.21616175e-17
3.97517679e-12
1.77640928e-11
4.2646047e-11
7.82799703e-11
1.23295292e-10
1.75628071e-10
2.33105369e-10
2.94307251e-10
3.58486781e-10
4.25611747e-10
4.95982991e-10
5.70132382e-10
6.48334527e-10
7.3098196e-10
8.18450582e-10
9.11617781e-10
1.01148435e-09
1.11943461e-09
1.23695891e-09
1.36513948e-09
1.50466107e-09
1.65560057e-09
1.81807518e-09
1.99207295e-09
2.17824415e-09
2.37740436e-09
2.59057768e-09
2.81872901e-09
3.06165669e-09
3.31941205e-09
3.59133039e-09
3.87674035e-09
4.17519546e-09
4.48677602e-09
4.81195064e-09
5.15141744e-09
5.50568601e-09
5.87488576e-09
6.25867865e-09
6.6562896e-09
7.06706816e-09
7.49041676e-09
7.92630608e-09
8.37444496e-09
8.83602177e-09
9.31083404e-09
9.79877806e-09
1.02992621e-08
1.08112414e-08
1.13333673e-08
1.1864283e-08
1.24028118e-08
1.29479439e-08
1.34987427e-08
1.40540153e-08
1.46120587e-08
1.5170426e-08
1.57259137e-08
1.62747407e-08
1.68126526e-08
1.73352529e-08
1.78378619e-08
1.83156364e-08
1.87625362e-08
1.91713213e-08
1.95323654e-08
1.98322881e-08
2.00546251e-08
2.01786018e-08
2.01803909e-08
2.00343266e-08
1.9717114e-08
1.92131276e-08
1.85192959e-08
1.76492273e-08
1.66298804e-08
1.55004923e-08
1.43015381e-08
1.30710631e-08
1.18433374e-08
1.06484144e-08
9.51214651e-09
8.4551557e-09
7.49150673e-09
6.62853452e-09
5.86735551e-09
5.20441435e-09
4.63291472e-09
4.14436537e-09
3.72977869e-09
3.38036367e-09
3.08801046e-09
2.84549741e-09
2.64658333e-09
2.48600469e-09
2.35941934e-09
2.26332829e-09
2.19501447e-09
2.15252795e-09
2.13460771e-09
2.14055968e-09
2.17030489e-09
2.22438301e-09
2.30396482e-09
2.41074357e-09
2.54726356e-09
2.7170469e-09
2.92473222e-09
3.17619788e-09
3.47850024e-09
3.83974128e-09
4.26970071e-09
4.77999786e-09
5.38384412e-09
6.09508778e-09
6.92589288e-09
7.88606677e-09
8.97662938e-09
1.0177813e-08
1.14304515e-08
1.26298337e-08
1.3614744e-08
1.4184946e-08
1.41545472e-08
1.34644821e-08
1.22065316e-08
1.05941255e-08
8.85519483e-09
7.1785115e-09
5.6821376e-09
4.41628971e-09
3.38216669e-09
2.56334068e-09
1.9314108e-09
1.44612087e-09
1.08170704e-09
8.01585634e-10
5.79238727e-10
4.16406539e-10
2.98575522e-10
2.13964885e-10
1.53510399e-10
1.10383516e-10
7.9573937e-11
5.75038449e-11
4.16532164e-11
3.02408113e-11
2.20038806e-11
1.60447863e-11
1.17237388e-11
8.58352452e-12
6.29656357e-12
4.62756629e-12
3.40712462e-12
2.51295765e-12
1.8566017e-12
1.37398888e-12
1.01850571e-12
7.56219687e-13
5.62377203e-13
4.18885962e-13
3.12498158e-13
2.33496143e-13
1.7473954e-13
1.30973033e-13
9.83224985e-14
7.39275302e-14
5.56729628e-14
4.19923628e-14
3.17239535e-14
2.40048364e-14
1.81931903e-14
1.38110144e-14
1.05020817e-14
7.99899698e-15
6.10201998e-15
4.66254403e-15
3.56851284e-15
2.73571641e-15
2.10077933e-15
1.6159354e-15
1.24512299e-15
9.61075002e-16
7.43152884e-16
5.75714885e-16
4.46873698e-16
3.47573291e-16
2.7091889e-16
2.11667386e-16
1.65818779e-16
1.30285264e-16
1.02686777e-16
8.12241494e-17
6.45347768e-17
5.15432339e-17
4.1400616e-17
3.34610145e-17
2.72463853e-17
2.23979113e-17
1.85997204e-17
1.56275881e-17
1.32848478e-17
1.14560372e-17
1.00284641e-17
8.91686535e-18
8.05853178e-18
7.39505695e-18
6.899367e-18
6.51624667e-18
6.22375122e-18
5.99693303e-18
5.81649608e-18
5.67150396e-18
5.54422868e-18
5.43148052e-18
5.32693933e-18
5.22424346e-18
5.11068691e-18
5.00192078e-18
4.91781268e-18
4.85254913e-18
4.80707879e-18
4.78145479e-18
4.77294781e-18
4.77547461e-18
4.78219021e-18
4.78712055e-18
4.78614563e-18
4.78069528e-18
4.77764522e-18
4.78711849e-18
4.8203772e-18
4.8878856e-18
4.99729106e-18
5.15232618e-18
5.35349957e-18
5.60075128e-18
5.89652461e-18
6.20225665e-18
6.53513357e-18
6.88652821e-18
7.24536684e-18
7.60206323e-18
7.94834841e-18
8.27677311e-18
8.58078818e-18
8.85537655e-18
9.0980383e-18
9.30996075e-18
9.49721216e-18
9.67177833e-18
9.85217398e-18
1.00632358e-17
1.03345646e-17
1.06971028e-17
1.11759866e-17
1.17732626e-17
1.25011814e-17
1.33486906e-17
1.42919468e-17
1.52979578e-17
1.63293871e-17
1.73497391e-17
1.83277274e-17
1.92400247e-17
2.00719794e-17
2.08158069e-17
2.14650951e-17
2.20015108e-17
2.23637054e-17
1.53614242e-10
5.55806284e-10
9.96091015e-10
1.38473599e-09
1.71220232e-09
1.96243812e-09
2.14343118e-09
2.28167789e-09
2.40294094e-09
2.52609465e-09
2.66264666e-09
2.81580408e-09
2.98145975e-09
3.15791929e-09
3.34796344e-09
3.55768465e-09
3.79408009e-09
4.06294597e-09
4.36529633e-09
4.6950511e-09
5.04296897e-09
5.40128456e-09
5.76676274e-09
6.14100885e-09
6.52924148e-09
6.93664279e-09
7.36665655e-09
7.8153019e-09
8.27691799e-09
8.74433401e-09
9.21231849e-09
9.67876082e-09
1.0145043e-08
1.06146687e-08
1.10913075e-08
1.15766387e-08
1.20690795e-08
1.25646976e-08
1.30586249e-08
1.35475123e-08
1.40296454e-08
1.45059847e-08
1.49776544e-08
1.54458508e-08
1.59121616e-08
1.63743948e-08
1.68286055e-08
1.7269236e-08
1.76905447e-08
1.80877485e-08
1.84575387e-08
1.87977317e-08
1.91064812e-08
1.93813507e-08
1.96184543e-08
1.98123177e-08
1.99562314e-08
2.00433259e-08
2.00676095e-08
2.00244427e-08
1.99108847e-08
1.97257018e-08
1.94689981e-08
1.91413109e-08
1.87437757e-08
1.82787544e-08
1.77501259e-08
1.71640183e-08
1.65281352e-08
1.58511736e-08
1.51413643e-08
1.44058815e-08
1.3650433e-08
1.28798927e-08
1.20988665e-08
1.13127478e-08
1.05289986e-08
9.75521058e-09
8.99861771e-09
8.26624424e-09
7.56480564e-09
6.90074129e-09
6.2799616e-09
5.70723238e-09
5.18571969e-09
4.71678394e-09
4.30014434e-09
3.93407816e-09
3.6158578e-09
3.34220239e-09
3.10958848e-09
2.91452951e-09
2.75373921e-09
2.62426713e-09
2.52356871e-09
2.44953163e-09
2.40048848e-09
2.37525566e-09
2.37318386e-09
2.39408643e-09
2.43821718e-09
2.50633354e-09
2.59974482e-09
2.72026982e-09
2.87004119e-09
3.05204155e-09
3.27040212e-09
3.53034885e-09
3.83809867e-09
4.2006786e-09
4.62540339e-09
5.1212086e-09
5.69834587e-09
6.36745008e-09
7.13752558e-09
8.01160283e-09
8.98854846e-09
1.00535655e-08
1.11654732e-08
1.22386291e-08
1.31609435e-08
1.37853206e-08
1.3956966e-08
1.35522095e-08
1.26014763e-08
1.12339678e-08
9.65424082e-09
8.02918063e-09
6.49841479e-09
5.14722388e-09
4.00828726e-09
3.07440076e-09
2.33572133e-09
1.76840316e-09
1.32809687e-09
9.94922396e-10
7.25279081e-10
5.27057679e-10
3.81357074e-10
2.7524094e-10
1.98511827e-10
1.4326165e-10
1.03539427e-10
7.49614287e-11
5.43719242e-11
3.95128926e-11
2.87698067e-11
2.09877332e-11
1.533961e-11
1.12323066e-11
8.23972328e-12
6.05518293e-12
4.45753275e-12
3.28698351e-12
2.42781687e-12
1.79610324e-12
1.33088968e-12
9.87726663e-13
7.34187726e-13
5.46571207e-13
4.07522112e-13
3.04310984e-13
2.27585665e-13
1.70464197e-13
1.27874452e-13
9.60724833e-14
7.22906057e-14
5.44798417e-14
4.11211059e-14
3.10865558e-14
2.35376681e-14
1.78501612e-14
1.35586872e-14
1.03162962e-14
7.86156779e-15
6.00040902e-15
4.58727053e-15
3.51265413e-15
2.6941978e-15
2.06987018e-15
1.59288813e-15
1.22791557e-15
9.48217926e-16
7.33538767e-16
5.68513949e-16
4.41473162e-16
3.43530415e-16
2.67905432e-16
2.09422453e-16
1.64138891e-16
1.29032276e-16
1.01776034e-16
8.05764949e-17
6.40733131e-17
5.12139753e-17
4.11797764e-17
3.33398437e-17
2.71994633e-17
2.23968437e-17
1.86321701e-17
1.56922311e-17
1.33835481e-17
1.15763455e-17
1.01613604e-17
9.06046244e-18
8.2125029e-18
7.56145886e-18
7.07224242e-18
6.69377087e-18
6.40607565e-18
6.18428283e-18
6.00991649e-18
5.86833608e-18
5.74505891e-18
5.63524317e-18
5.5332643e-18
5.43347757e-18
5.32459795e-18
5.21761149e-18
5.12895166e-18
5.06064879e-18
5.01234549e-18
4.98347871e-18
4.97215828e-18
4.97175866e-18
4.97555269e-18
4.9777616e-18
4.97464678e-18
4.96801847e-18
4.96483403e-18
4.97513313e-18
5.00993757e-18
5.07938644e-18
5.19078466e-18
5.34760523e-18
5.55021186e-18
5.79869737e-18
6.10176109e-18
6.40308095e-18
6.73585928e-18
7.08750443e-18
7.44627792e-18
7.80280402e-18
8.14909547e-18
8.47785894e-18
8.78259919e-18
9.05830703e-18
9.30248369e-18
9.51633308e-18
9.70596828e-18
9.88345741e-18
1.00674379e-17
1.02828936e-17
1.05595184e-17
1.09279682e-17
1.141103e-17
1.20166616e-17
1.27513989e-17
1.36045892e-17
1.45524242e-17
1.55618861e-17
1.65957036e-17
1.76175498e-17
1.85963818e-17
1.95091475e-17
2.03414564e-17
2.108571e-17
2.17355869e-17
2.22727114e-17
2.26357162e-17
3.60336767e-09
1.31753623e-08
1.3886411e-08
1.23951519e-08
1.08982431e-08
9.3509125e-09
8.09813905e-09
7.35160515e-09
7.02799192e-09
6.99293742e-09
7.13852025e-09
7.351741e-09
7.53966772e-09
7.71692414e-09
7.93678679e-09
8.23557891e-09
8.62738382e-09
9.10572982e-09
9.62648279e-09
1.01212857e-08
1.05500039e-08
1.09155567e-08
1.12466855e-08
1.15825746e-08
1.19517539e-08
1.23648898e-08
1.28069267e-08
1.32413583e-08
1.36384487e-08
1.39844837e-08
1.42833446e-08
1.45495257e-08
1.48016213e-08
1.50544049e-08
1.53144772e-08
1.55771552e-08
1.58291525e-08
1.60573527e-08
1.62550059e-08
1.64242879e-08
1.65715129e-08
1.670548e-08
1.68309063e-08
1.6950424e-08
1.70627428e-08
1.71613833e-08
1.72375561e-08
1.72840458e-08
1.72981794e-08
1.72817532e-08
1.72391693e-08
1.7175211e-08
1.70933408e-08
1.69946916e-08
1.68777463e-08
1.67391346e-08
1.65751468e-08
1.63830723e-08
1.61617231e-08
1.59110957e-08
1.5631756e-08
1.53250166e-08
1.49915868e-08
1.4631353e-08
1.42437197e-08
1.38286518e-08
1.33873636e-08
1.29222444e-08
1.24366734e-08
1.19345334e-08
1.14194477e-08
1.08946384e-08
1.03625599e-08
9.82550385e-09
9.28547204e-09
8.74519083e-09
8.20856624e-09
7.67987894e-09
7.16320951e-09
6.66254178e-09
6.18173375e-09
5.72451187e-09
5.29442351e-09
4.89457894e-09
4.52735056e-09
4.19426879e-09
3.89596349e-09
3.63220556e-09
3.40209986e-09
3.20430408e-09
3.03720055e-09
2.89907419e-09
2.78823083e-09
2.70312025e-09
2.64241158e-09
2.60503818e-09
2.59022673e-09
2.59760292e-09
2.62718199e-09
2.67938823e-09
2.75502661e-09
2.85535478e-09
2.98214203e-09
3.13753884e-09
3.32369847e-09
3.54382794e-09
3.80244147e-09
4.10505025e-09
4.45781213e-09
4.86720072e-09
5.33895411e-09
5.88079702e-09
6.50106514e-09
7.2070925e-09
8.00224321e-09
8.8793393e-09
9.82840326e-09
1.08226831e-08
1.1807358e-08
1.26808874e-08
1.33443251e-08
1.36760217e-08
1.35629735e-08
1.29140285e-08
1.18253774e-08
1.04299848e-08
8.91863859e-09
7.39972559e-09
5.986063e-09
4.74544869e-09
3.70118347e-09
2.83983844e-09
2.16150307e-09
1.64502715e-09
1.23168899e-09
9.15408541e-10
6.71243051e-10
4.90037482e-10
3.56246468e-10
2.58311071e-10
1.87160662e-10
1.35637737e-10
9.83892306e-11
7.14605563e-11
5.19785735e-11
3.78681145e-11
2.76340245e-11
2.01999521e-11
1.47909627e-11
1.08487499e-11
7.97063152e-12
5.86577273e-12
4.3237986e-12
3.1922916e-12
2.36057397e-12
1.74823867e-12
1.29673315e-12
9.6329539e-13
7.16673611e-13
5.33988814e-13
3.98463955e-13
2.97776798e-13
2.22862901e-13
1.67044117e-13
1.25393049e-13
9.42687664e-14
7.09770743e-14
5.35215293e-14
4.04206772e-14
3.05736887e-14
2.31614599e-14
1.75737016e-14
1.33551673e-14
1.01663788e-14
7.7506057e-15
5.91828803e-15
4.52639629e-15
3.46745464e-15
2.66058355e-15
2.04483382e-15
1.57421323e-15
1.21396705e-15
9.37789348e-16
7.25736738e-16
5.62672541e-16
4.37096395e-16
3.40252647e-16
2.65457091e-16
2.07599051e-16
1.62782447e-16
1.28026301e-16
1.01040495e-16
8.00486758e-17
6.37007453e-17
5.09568331e-17
4.10106386e-17
3.32437559e-17
2.71605279e-17
2.23997926e-17
1.866748e-17
1.57529288e-17
1.34668157e-17
1.16761092e-17
1.02739377e-17
9.18379413e-18
8.34400075e-18
7.7010074e-18
7.21697621e-18
6.84296774e-18
6.55984344e-18
6.34215424e-18
6.17189398e-18
6.03329584e-18
5.91331573e-18
5.80634111e-18
5.7065276e-18
5.60846727e-18
5.50177496e-18
5.39607907e-18
5.30586858e-18
5.23544541e-18
5.18462376e-18
5.15314899e-18
5.13946694e-18
5.13669517e-18
5.13797626e-18
5.13782272e-18
5.13292904e-18
5.12534015e-18
5.1220289e-18
5.13294664e-18
5.16894928e-18
5.2398943e-18
5.35282466e-18
5.51101347e-18
5.71469583e-18
5.96388344e-18
6.27431595e-18
6.570225e-18
6.90333603e-18
7.25524928e-18
7.61393532e-18
7.97028971e-18
8.31657747e-18
8.64562892e-18
8.95098692e-18
9.22764552e-18
9.47310553e-18
9.68858352e-18
9.88022806e-18
1.00601728e-17
1.0247153e-17
1.04662705e-17
1.07472995e-17
1.11207315e-17
1.16083146e-17
1.22198618e-17
1.29599198e-17
1.38176606e-17
1.47691863e-17
1.57814335e-17
1.68171791e-17
1.78402348e-17
1.88197596e-17
1.97329244e-17
2.05655472e-17
2.13101797e-17
2.1960573e-17
2.24983047e-17
2.28619762e-17
4.79317413e-51
1.06809426e-50
1.26631528e-50
1.08904468e-50
6.97277773e-51
4.02735863e-51
2.33601815e-51
1.36768124e-51
8.19320295e-52
4.69376878e-52
2.71024899e-52
1.63942981e-52
9.98887199e-53
6.20272747e-53
3.94915683e-53
2.52758615e-53
2.29220459e-53
4.58977482e-52
3.03568149e-50
2.06049224e-48
1.40590084e-46
9.61367242e-45
6.58126875e-43
4.5168297e-41
3.11267074e-39
2.14907167e-37
1.48532133e-35
1.02767334e-33
7.12186732e-32
4.95317737e-30
3.45862099e-28
2.42165759e-26
1.70041806e-24
1.20017867e-22
8.52488103e-21
6.10775697e-19
4.44562015e-17
3.32292035e-15
2.6387833e-13
2.27998811e-11
1.11711643e-50
9.53336065e-51
9.29364287e-51
6.92889638e-51
5.03696638e-51
3.54699175e-51
2.44443547e-51
1.67449013e-51
1.14439685e-51
7.63490178e-52
4.96783391e-52
3.32167978e-52
2.14330736e-52
1.40726224e-52
9.6751556e-53
6.56987272e-53
4.76372139e-53
1.06827258e-52
5.1101554e-51
3.4516288e-49
2.34964456e-47
1.60216068e-45
1.09567029e-43
7.5207685e-42
5.17589577e-40
3.56625476e-38
2.46156208e-36
1.70242823e-34
1.18091802e-32
8.21712866e-31
5.72985153e-29
4.00066474e-27
2.79782757e-25
1.95956761e-23
1.37215823e-21
9.59065252e-20
6.68102161e-18
4.62024335e-16
3.14538178e-14
2.02406217e-12
2.09434049e-51
2.63548862e-51
3.222074e-51
3.43261404e-51
3.16186288e-51
2.81210552e-51
2.24909441e-51
1.85390781e-51
1.42263258e-51
1.09916434e-51
8.24322146e-52
6.23101526e-52
4.55520774e-52
3.46963169e-52
2.60536482e-52
1.87883308e-52
1.38183467e-52
1.1607362e-52
1.03669335e-51
6.49216722e-50
4.39229078e-48
2.98145352e-46
2.03290127e-44
1.39211598e-42
9.55367868e-41
6.56372224e-39
4.51908862e-37
3.11848401e-35
2.15788563e-33
1.49483346e-31
1.03376275e-29
7.12593809e-28
4.89128399e-26
3.33070104e-24
2.23786271e-22
1.47423816e-20
9.42668848e-19
5.76763488e-17
3.26508465e-15
1.61182389e-13
2.7970207e-51
2.57496126e-51
2.80642123e-51
2.65865718e-51
2.71283746e-51
2.3332126e-51
2.08728818e-51
1.74717367e-51
1.44250651e-51
1.22064454e-51
9.64287272e-52
7.68876184e-52
6.17825629e-52
4.89958522e-52
3.79219231e-52
2.96206587e-52
2.2908689e-52
1.79752486e-52
3.30231718e-52
1.31163822e-50
8.73172102e-49
5.88434491e-47
3.98552099e-45
2.71019906e-43
1.84778944e-41
1.26158005e-39