/*--------------------------------*- C++ -*----------------------------------*\
  =========                 |
  \\      /  F ield         | OpenFOAM: The Open Source CFD Toolbox
   \\    /   O peration     | Website:  https://openfoam.org
    \\  /    A nd           | Version:  6
     \\/     M anipulation  |
\*---------------------------------------------------------------------------*/
FoamFile
{
    version     2.0;
    format      ascii;
    class       volScalarField;
    location    "25000";
    object      C3H8;
}
// * * * * * * * * * * * * * * * * * * * * * * * * * * * * * * * * * * * * * //

dimensions      [0 0 0 0 0 0 0];

internalField   nonuniform List<scalar> 
44870
(
2.80974514e-101
3.47077741e-99
4.26630402e-97
5.30341575e-95
6.67264917e-93
8.50244519e-91
1.09795039e-88
1.43782669e-86
1.91090491e-84
2.57914493e-82
3.53759135e-80
4.93375804e-78
6.99980678e-76
1.01062078e-73
1.4851271e-71
2.22159153e-69
3.38260817e-67
5.24187219e-65
8.26476667e-63
1.3255157e-60
2.16142394e-58
3.58224705e-56
6.03100406e-54
1.03105407e-51
1.78880857e-49
3.14825115e-47
5.6165458e-45
1.01528509e-42
1.85767392e-40
3.43870832e-38
6.4289887e-36
1.21287187e-33
2.30207361e-31
4.38665198e-29
8.33986676e-27
1.57235135e-24
2.89581336e-22
5.10744855e-20
8.12514951e-18
1.09476753e-15
2.0287718e-101
2.49082038e-99
3.04662466e-97
3.77861723e-95
4.76247219e-93
6.11149972e-91
8.00132688e-89
1.07064436e-86
1.46651997e-84
2.05865786e-82
2.96406973e-80
4.378378e-78
6.63442961e-76
1.03071206e-73
1.64012215e-71
2.67071393e-69
4.44344631e-67
7.5455027e-65
1.30555062e-62
2.29957158e-60
4.11645421e-58
7.48506892e-56
1.38021305e-53
2.58098262e-51
4.88596313e-49
9.37010033e-47
1.81665872e-44
3.56596994e-42
7.06873026e-40
1.41848867e-37
2.87156437e-35
5.88508167e-33
1.21508933e-30
2.53996156e-28
5.33450678e-26
1.13158065e-23
2.39020101e-21
5.03987661e-19
9.93758092e-17
1.86523126e-14
8.71216697e-102
1.04212386e-99
1.25482328e-97
1.56126233e-95
2.02373762e-93
2.74814856e-91
3.9244753e-89
5.8993624e-87
9.31653629e-85
1.54030976e-82
2.65203216e-80
4.72785741e-78
8.67703515e-76
1.63110648e-73
3.1252674e-71
6.08798537e-69
1.2007369e-66
2.39531366e-64
4.81887181e-62
9.77599495e-60
1.99594981e-57
4.10425467e-55
8.48182443e-53
1.76508958e-50
3.68829271e-48
7.76507953e-46
1.64046036e-43
3.49503049e-41
7.4668025e-39
1.6112542e-36
3.48343589e-34
7.62125922e-32
1.66826425e-29
3.70586737e-27
8.22966711e-25
1.86006683e-22
4.19764174e-20
9.71913864e-18
2.160063e-15
4.93371631e-13
1.81124769e-102
2.16515715e-100
2.93440276e-98
4.60825888e-96
8.25574094e-94
1.63792369e-91
3.48622794e-89
7.75475315e-87
1.76886313e-84
4.08613114e-82
9.48298056e-80
2.20023644e-77
5.08759219e-75
1.17089717e-72
2.6791167e-70
6.0956122e-68
1.37877783e-65
3.10310839e-63
6.94832273e-61
1.54930997e-58
3.44226549e-56
7.62678503e-54
1.68551897e-51
3.72009587e-49
8.1976583e-47
1.8066449e-44
3.97903121e-42
8.77517557e-40
1.9351236e-37
4.27989874e-35
9.46792307e-33
2.10381582e-30
4.67566871e-28
1.04540714e-25
2.33764491e-23
5.25604161e-21
1.17869666e-18
2.64717807e-16
5.75346206e-14
1.2164357e-11
2.34530986e-103
7.19369399e-101
2.42028906e-98
8.10216251e-96
2.61659815e-93
8.10422877e-91
2.41013363e-88
6.90335416e-86
1.91105219e-83
5.13051065e-81
1.34004789e-78
3.41540832e-76
8.51741104e-74
2.0834442e-71
5.00996812e-69
1.18667712e-66
2.77367178e-64
6.40762311e-62
1.46513438e-59
3.32009776e-57
7.46449014e-55
1.66672544e-52
3.69931725e-50
8.16801219e-48
1.79532838e-45
3.93091799e-43
8.57821838e-41
1.8663267e-38
4.05073326e-36
8.77239689e-34
1.89647647e-31
4.09351957e-29
8.8252211e-27
1.90052118e-24
4.08956601e-22
8.79325001e-20
1.88974549e-17
4.05900121e-15
8.71465566e-13
1.88026733e-10
3.50178e-14
1.52694628e-13
4.18902649e-13
9.64323023e-13
2.02933091e-12
4.02373146e-12
7.59181678e-12
1.37033007e-11
2.36960105e-11
3.94490742e-11
6.3345333e-11
9.8637965e-11
1.49240413e-10
2.20401229e-10
3.18433427e-10
4.51181508e-10
6.28531313e-10
8.61795238e-10
1.16614387e-09
1.55782675e-09
2.0584439e-09
2.6921402e-09
3.4885546e-09
4.48322505e-09
5.71791813e-09
7.24389018e-09
9.11446242e-09
1.14096031e-08
1.41950024e-08
1.7583752e-08
2.16759388e-08
2.66044747e-08
3.2521864e-08
3.95782234e-08
4.79852045e-08
5.79232351e-08
6.96601967e-08
8.3420392e-08
9.9520134e-08
1.18249412e-07
1.39979692e-07
1.65090328e-07
1.94003242e-07
2.27120637e-07
2.64959722e-07
3.07899662e-07
3.56348466e-07
4.10704111e-07
4.71359076e-07
5.38712795e-07
6.13158638e-07
6.95099315e-07
7.8490833e-07
8.82947566e-07
9.89508503e-07
1.10482875e-06
1.22903488e-06
1.3621645e-06
1.50414569e-06
1.65482519e-06
1.81398422e-06
1.98134485e-06
2.1566204e-06
2.33948821e-06
2.52970726e-06
2.72702949e-06
2.93136412e-06
3.14262038e-06
3.36084472e-06
3.58599563e-06
3.81803525e-06
4.05679306e-06
4.30193045e-06
4.55313589e-06
4.80974459e-06
5.07159239e-06
5.33750405e-06
5.6072291e-06
5.88022094e-06
6.1560346e-06
6.43423919e-06
6.71445799e-06
6.99641379e-06
7.27983713e-06
7.56448232e-06
7.85002959e-06
8.13619168e-06
8.42250071e-06
8.70846264e-06
8.99353681e-06
9.27710238e-06
9.5585438e-06
9.83719615e-06
1.01124001e-05
1.03834934e-05
1.0649793e-05
1.09105534e-05
1.11649283e-05
1.14119072e-05
1.16502836e-05
1.18785046e-05
1.20946904e-05
1.22964752e-05
1.24809595e-05
1.26445803e-05
1.27830337e-05
1.28911826e-05
1.29630145e-05
1.29915561e-05
1.29688884e-05
1.28862004e-05
1.27342022e-05
1.25038297e-05
1.21871362e-05
1.17784255e-05
1.12751891e-05
1.06783792e-05
9.99160219e-06
9.2194471e-06
8.36632972e-06
7.4380847e-06
6.44776987e-06
5.42360876e-06
4.4124121e-06
3.47151541e-06
2.65045049e-06
1.97543084e-06
1.44676367e-06
1.04712093e-06
7.52149322e-07
5.37760648e-07
3.83448444e-07
2.73038768e-07
1.9432731e-07
1.38343053e-07
9.85764044e-08
7.03512163e-08
5.03202157e-08
3.60884983e-08
2.59529823e-08
1.86866629e-08
1.34765261e-08
9.73625749e-09
7.04659017e-09
5.10898561e-09
3.71080063e-09
2.70014718e-09
1.96832461e-09
1.43744643e-09
1.05163358e-09
7.70733439e-10
5.65846396e-10
4.16135764e-10
3.06553613e-10
2.26233833e-10
1.67366221e-10
1.24124495e-10
9.22915135e-11
6.88049891e-11
5.14343664e-11
3.85409912e-11
2.89038071e-11
2.16901653e-11
1.62841979e-11
1.22346019e-11
9.20522881e-12
6.93605454e-12
5.23403248e-12
3.95571873e-12
2.9942742e-12
2.27007754e-12
1.72375005e-12
1.31097146e-12
9.98635443e-13
7.6191555e-13
5.82171368e-13
4.45497591e-13
3.4142407e-13
2.62057294e-13
2.01443369e-13
1.55084899e-13
1.1957893e-13
9.23468634e-14
7.14328763e-14
5.53513429e-14
4.2970842e-14
3.34290345e-14
2.60665108e-14
2.03787093e-14
1.59801457e-14
1.25728089e-14
9.92867725e-15
7.87410742e-15
6.27918727e-15
5.03967381e-15
4.07387475e-15
3.3197065e-15
2.73236345e-15
2.27690417e-15
1.92291994e-15
1.64854254e-15
1.43535101e-15
1.27299138e-15
1.15026295e-15
1.05980115e-15
9.95403354e-16
9.51899641e-16
9.26893766e-16
9.1460659e-16
9.13487651e-16
9.20653946e-16
9.3456983e-16
9.53892659e-16
9.77202322e-16
1.00447268e-15
1.03499378e-15
1.06777839e-15
1.09842828e-15
1.13584623e-15
1.1848176e-15
1.24019533e-15
1.30419876e-15
1.37751848e-15
1.46028003e-15
1.55134249e-15
1.64928415e-15
1.75257367e-15
1.86021449e-15
1.97309545e-15
2.09403714e-15
2.22732294e-15
2.37819195e-15
2.5520873e-15
2.75370214e-15
2.98638338e-15
3.25229843e-15
3.55369786e-15
3.89117894e-15
4.24928944e-15
4.63093333e-15
5.03377542e-15
5.45241125e-15
5.88115788e-15
6.31482205e-15
6.74877099e-15
7.1789928e-15
7.60231313e-15
8.01674513e-15
8.4219185e-15
8.81952866e-15
9.21372016e-15
9.61125237e-15
1.00212151e-14
1.04540715e-14
1.09203843e-14
1.14329048e-14
1.195972e-14
1.25176408e-14
1.3092963e-14
1.36702511e-14
1.42348596e-14
1.47744015e-14
1.52797834e-14
1.57454692e-14
1.61690478e-14
1.6550272e-14
1.68895157e-14
1.7185144e-14
1.74281843e-14
1.75901843e-14
7.22240107e-13
2.74157571e-12
6.659428e-12
1.41920683e-11
2.84674429e-11
5.44958054e-11
9.94475012e-11
1.73391953e-10
2.89086227e-10
4.63441714e-10
7.16376201e-10
1.07409623e-09
1.56623709e-09
2.23140594e-09
3.11342888e-09
4.26416992e-09
5.74576025e-09
7.62500022e-09
9.98664777e-09
1.29137695e-08
1.65107206e-08
2.0886274e-08
2.61596539e-08
3.2473898e-08
3.99556429e-08
4.87829074e-08
5.90956676e-08
7.11015141e-08
8.49484571e-08
1.00855659e-07
1.18989444e-07
1.3954549e-07
1.6268092e-07
1.8855382e-07
2.17311295e-07
2.49074353e-07
2.83990344e-07
3.2215542e-07
3.6372941e-07
4.08797772e-07
4.57520177e-07
5.09964235e-07
5.66244532e-07
6.26350591e-07
6.90459583e-07
7.5854223e-07
8.30656456e-07
9.06892894e-07
9.87376765e-07
1.07226937e-06
1.1617586e-06
1.25606335e-06
1.35541897e-06
1.46008646e-06
1.57033909e-06
1.68646941e-06
1.80876252e-06
1.93749239e-06
2.07288802e-06
2.21512608e-06
2.36430742e-06
2.52046611e-06
2.68357043e-06
2.8535533e-06
3.03034891e-06
3.21386756e-06
3.40411878e-06
3.60110776e-06
3.80491441e-06
4.01555959e-06
4.2330544e-06
4.4572968e-06
4.68805123e-06
4.92504838e-06
5.16774869e-06
5.41593359e-06
5.66854141e-06
5.92528231e-06
6.18560398e-06
6.44906504e-06
6.71521685e-06
6.98370916e-06
7.25427937e-06
7.52665782e-06
7.80057868e-06
8.07571125e-06
8.35170884e-06
8.62808101e-06
8.90428339e-06
9.17974718e-06
9.45381841e-06
9.72584364e-06
9.99515629e-06
1.02610838e-05
1.05229417e-05
1.07800082e-05
1.10314823e-05
1.12764453e-05
1.15138012e-05
1.17422496e-05
1.19601291e-05
1.21654539e-05
1.23557551e-05
1.25280291e-05
1.26786098e-05
1.2803098e-05
1.28962897e-05
1.29521571e-05
1.29637549e-05
1.29232592e-05
1.28220472e-05
1.26511458e-05
1.24019305e-05
1.20670389e-05
1.16414144e-05
1.11231376e-05
1.05136106e-05
9.81673166e-06
9.03738329e-06
8.18061363e-06
7.25349863e-06
6.27077748e-06
5.26189031e-06
4.27311538e-06
3.35891406e-06
2.56468322e-06
1.91318494e-06
1.40313145e-06
1.01721452e-06
7.31920931e-07
5.24176854e-07
3.74362887e-07
2.6697311e-07
1.90280495e-07
1.356454e-07
9.67792614e-08
6.91552428e-08
4.95245966e-08
3.55568099e-08
2.55877372e-08
1.84361509e-08
1.33045842e-08
9.61789646e-09
6.96485849e-09
5.05238129e-09
3.67148759e-09
2.67276395e-09
1.94919533e-09
1.42404492e-09
1.04221871e-09
7.6410162e-10
5.61163005e-10
4.12820264e-10
3.04200752e-10
2.24553881e-10
1.66157808e-10
1.23254882e-10
9.16656244e-11
6.83544052e-11
5.11099308e-11
3.83093107e-11
2.87393402e-11
2.15727173e-11
1.61997054e-11
1.21729267e-11
9.16006049e-12
6.90293226e-12
5.20973437e-12
3.93788415e-12
2.98117202e-12
2.26044024e-12
1.71665094e-12
1.30573371e-12
9.94766132e-13
7.59051661e-13
5.80044263e-13
4.43916565e-13
3.40247331e-13
2.61180084e-13
2.00788515e-13
1.54595501e-13
1.19212836e-13
9.20726843e-14
7.12273445e-14
5.51973883e-14
4.28558021e-14
3.33431852e-14
2.6002321e-14
2.03308481e-14
1.59449488e-14
1.25470227e-14
9.91010144e-15
7.86071103e-15
6.26995294e-15
5.03394361e-15
4.07074714e-15
3.31831909e-15
2.73225427e-15
2.2781335e-15
1.92529264e-15
1.6517734e-15
1.43910965e-15
1.2772369e-15
1.15510193e-15
1.0651253e-15
1.00113862e-15
9.57961655e-16
9.33356473e-16
9.21437066e-16
9.20635393e-16
9.28194444e-16
9.42516623e-16
9.62321958e-16
9.86012776e-16
1.01364247e-15
1.04461261e-15
1.07792765e-15
1.1087342e-15
1.14661232e-15
1.19623932e-15
1.2519052e-15
1.31627496e-15
1.38995276e-15
1.47305955e-15
1.56451482e-15
1.66290127e-15
1.76668376e-15
1.87488016e-15
1.98841249e-15
2.1101195e-15
2.24426369e-15
2.3960303e-15
2.57081125e-15
2.77326075e-15
3.00668863e-15
3.27323063e-15
3.57515022e-15
3.91368357e-15
4.27163325e-15
4.65329372e-15
5.05618524e-15
5.47480388e-15
5.90347563e-15
6.3370461e-15
6.77091472e-15
7.20109029e-15
7.62441094e-15
8.0388963e-15
8.44417678e-15
8.84194119e-15
9.2363177e-15
9.63403656e-15
1.00441431e-14
1.04770359e-14
1.09431841e-14
1.14561568e-14
1.198126e-14
1.25385546e-14
1.31129296e-14
1.3689113e-14
1.4252571e-14
1.47909892e-14
1.52953228e-14
1.57600657e-14
1.61828208e-14
1.65633425e-14
1.69020001e-14
1.71971535e-14
1.74398359e-14
1.76016953e-14
2.71590307e-11
9.17360705e-11
2.05013585e-10
4.15694556e-10
7.98942992e-10
1.45802984e-09
2.51859504e-09
4.12375335e-09
6.42246154e-09
9.57824181e-09
1.37565126e-08
1.91458336e-08
2.59340816e-08
3.43329594e-08
4.45439647e-08
5.67756587e-08
7.12244136e-08
8.80656443e-08
1.07475527e-07
1.29596926e-07
1.54575599e-07
1.82526915e-07
2.13551631e-07
2.47733769e-07
2.8511692e-07
3.25775167e-07
3.69682191e-07
4.16898355e-07
4.67283715e-07
5.208116e-07
5.77341252e-07
6.36718007e-07
6.98743012e-07
7.63245804e-07
8.30048888e-07
8.99039187e-07
9.70136969e-07
1.0433055e-06
1.11855025e-06
1.19583126e-06
1.27514753e-06
1.356417e-06
1.43962893e-06
1.52465707e-06
1.61165444e-06
1.70056063e-06
1.7914466e-06
1.8844208e-06
1.97961148e-06
2.07715895e-06
2.17720005e-06
2.27989935e-06
2.38544357e-06
2.49406248e-06
2.60602811e-06
2.72165042e-06
2.8412509e-06
2.96514134e-06
3.09359293e-06
3.22682001e-06
3.36497584e-06
3.50817536e-06
3.65649618e-06
3.8100585e-06
3.9689494e-06
4.13329782e-06
4.30332237e-06
4.4792166e-06
4.66120037e-06
4.84944968e-06
5.04409802e-06
5.24516592e-06
5.45254886e-06
5.66603064e-06
5.88520031e-06
6.10976003e-06
6.3388417e-06
6.57212218e-06
6.80911334e-06
7.04943142e-06
7.29273429e-06
7.53876698e-06
7.78731805e-06
8.03815617e-06
8.2909929e-06
8.54546843e-06
8.80112396e-06
9.05742546e-06
9.31374171e-06
9.56941621e-06
9.82377176e-06
1.00761262e-05
1.03257947e-05
1.0572081e-05
1.08142551e-05
1.10515117e-05
1.12829303e-05
1.15074391e-05
1.17237642e-05
1.19304026e-05
1.21254788e-05
1.23067878e-05
1.24716541e-05
1.26168631e-05
1.27385409e-05
1.28321027e-05
1.2892244e-05
1.29129493e-05
1.28873913e-05
1.28080072e-05
1.2666644e-05
1.24550529e-05
1.21656436e-05
1.17923302e-05
1.13314095e-05
1.07821865e-05
1.01469977e-05
9.43039959e-06
8.63803498e-06
7.77647951e-06
6.85546996e-06
5.89295893e-06
4.92018978e-06
3.98146249e-06
3.12473205e-06
2.38696296e-06
1.78430113e-06
1.31266575e-06
9.55053693e-07
6.8974923e-07
4.95770878e-07
3.55310231e-07
2.54220397e-07
1.8175203e-07
1.29948713e-07
9.29770253e-08
6.66202734e-08
4.78348891e-08
3.44238882e-08
2.4805158e-08
1.7898852e-08
1.29352826e-08
9.36339455e-09
6.78891627e-09
4.93040176e-09
3.58668542e-09
2.61364067e-09
1.90785784e-09
1.39506207e-09
1.02184281e-09
7.49739189e-10
5.51013894e-10
4.05631241e-10
2.9909648e-10
2.20915784e-10
1.6353717e-10
1.21367989e-10
9.03069626e-11
6.73758722e-11
5.0404981e-11
3.7804119e-11
2.83809618e-11
2.13166579e-11
1.6015398e-11
1.20384511e-11
9.06152756e-12
6.83065319e-12
5.15670087e-12
3.89895075e-12
2.95256396e-12
2.23939328e-12
1.70114387e-12
1.2942901e-12
9.86310912e-13
7.5279253e-13
5.75393565e-13
4.40459734e-13
3.37674094e-13
2.59261637e-13
1.99356211e-13
1.5352484e-13
1.18411719e-13
9.1472801e-14
7.07779222e-14
5.48607158e-14
4.26038773e-14
3.3155111e-14
2.58621761e-14
2.02267161e-14
1.58680293e-14
1.24912873e-14
9.86941998e-15
7.83201449e-15
6.25026769e-15
5.02128191e-15
4.06352514e-15
3.31540264e-15
2.73259731e-15
2.28113067e-15
1.93040827e-15
1.65871952e-15
1.44754504e-15
1.28689303e-15
1.16588748e-15
1.07685979e-15
1.0137812e-15
9.714483e-16
9.47712403e-16
9.36562259e-16
9.36481307e-16
9.44898814e-16
9.60121241e-16
9.80947674e-16
1.00552533e-15
1.03399577e-15
1.06592151e-15
1.10037942e-15
1.13368141e-15
1.17230783e-15
1.22149615e-15
1.27783529e-15
1.34298688e-15
1.41747328e-15
1.50138379e-15
1.59370602e-15
1.69303471e-15
1.79787423e-15
1.90728559e-15
2.02223446e-15
2.14558766e-15
2.28157276e-15
2.43528304e-15
2.61199857e-15
2.81627652e-15
3.05133993e-15
3.31925681e-15
3.62234262e-15
3.96323299e-15
4.32075195e-15
4.7024769e-15
5.10549703e-15
5.52408591e-15
5.95259713e-15
6.38596402e-15
6.81965681e-15
7.24972926e-15
7.67304609e-15
8.08764048e-15
8.49314384e-15
8.89123032e-15
9.28599237e-15
9.68409737e-15
1.00944952e-14
1.05274461e-14
1.09931883e-14
1.15023373e-14
1.20283801e-14
1.25844897e-14
1.31567917e-14
1.37305643e-14
1.42915108e-14
1.48274738e-14
1.53295147e-14
1.57921917e-14
1.62131385e-14
1.65921151e-14
1.69294811e-14
1.72235847e-14
1.74654678e-14
1.76269218e-14
1.09090519e-09
3.00552937e-09
6.20676744e-09
1.15790484e-08
2.04396505e-08
3.39779904e-08
5.28128703e-08
7.70626423e-08
1.06525414e-07
1.4100481e-07
1.80409959e-07
2.24850389e-07
2.74370644e-07
3.28976843e-07
3.8840334e-07
4.52334249e-07
5.20251752e-07
5.91713768e-07
6.66379037e-07
7.43916383e-07
8.24060197e-07
9.06447235e-07
9.90791731e-07
1.07669626e-06
1.16394801e-06
1.25228379e-06
1.34155409e-06
1.43166961e-06
1.52221383e-06
1.61307175e-06
1.70396209e-06
1.79462233e-06
1.88488817e-06
1.97474891e-06
2.06433753e-06
2.15390382e-06
2.24370749e-06
2.33397348e-06
2.42478799e-06
2.51609956e-06
2.60780653e-06
2.69978236e-06
2.79201051e-06
2.88447308e-06
2.9774696e-06
3.07112859e-06
3.16568229e-06
3.26132757e-06
3.35819816e-06
3.45636538e-06
3.55589192e-06
3.65688814e-06
3.75953516e-06
3.86410605e-06
3.9709177e-06
4.08028951e-06
4.19247709e-06
4.30764558e-06
4.42586878e-06
4.54714983e-06
4.67149588e-06
4.79895345e-06
4.92967521e-06
5.06390873e-06
5.20197319e-06
5.34423922e-06
5.49112307e-06
5.6430157e-06
5.80029523e-06
5.96326818e-06
6.1321432e-06
6.30697117e-06
6.48763787e-06
6.67385331e-06
6.86518104e-06
7.0612091e-06
7.26124956e-06
7.46502095e-06
7.67221487e-06
7.88263009e-06
8.09618519e-06
8.31278872e-06
8.53230822e-06
8.75454627e-06
8.97914808e-06
9.2056591e-06
9.43347485e-06
9.66192749e-06
9.89030501e-06
1.01178882e-05
1.03439806e-05
1.05678947e-05
1.07889339e-05
1.10063682e-05
1.12193897e-05
1.14270578e-05
1.16282673e-05
1.1821722e-05
1.20058921e-05
1.21789719e-05
1.2338816e-05
1.2482928e-05
1.26083629e-05
1.27116363e-05
1.27886057e-05
1.28344845e-05
1.28439446e-05
1.28111167e-05
1.27295046e-05
1.25920825e-05
1.2391507e-05
1.21207832e-05
1.17739691e-05
1.13468792e-05
1.08377209e-05
1.02474756e-05
9.5797884e-06
8.84028904e-06
8.03603751e-06
7.17612081e-06
6.27384869e-06
5.35058467e-06
4.43814628e-06
3.57618307e-06
2.80278435e-06
2.14398454e-06
1.60821122e-06
1.18873802e-06
8.69519561e-07
6.31420253e-07
4.56274364e-07
3.28693431e-07
2.36325795e-07
1.6973543e-07
1.21894489e-07
8.75827787e-08
6.30121299e-08
4.542097e-08
3.27686801e-08
2.36686075e-08
1.71177038e-08
1.23973855e-08
8.99189794e-09
6.53158161e-09
4.75166532e-09
3.46220946e-09
2.52671696e-09
1.84699218e-09
1.35232857e-09
9.91761386e-10
7.28510462e-10
5.35996216e-10
3.94982697e-10
2.91528955e-10
2.15521899e-10
1.59653301e-10
1.18569557e-10
8.82904583e-11
6.59225145e-11
4.93570749e-11
3.70498398e-11
2.78457426e-11
2.09337995e-11
1.57395537e-11
1.18373636e-11
8.91403532e-12
6.72239959e-12
5.07724651e-12
3.84060224e-12
2.90967496e-12
2.20782828e-12
1.67787849e-12
1.27711459e-12
9.73616754e-13
7.43376898e-13
5.68404449e-13
4.35264367e-13
3.33805661e-13
2.56376844e-13
1.97201907e-13
1.5191401e-13
1.17206142e-13
9.0570114e-14
7.01018202e-14
5.43541102e-14
4.22244877e-14
3.28719338e-14
2.56516789e-14
2.0070597e-14
1.57523658e-14
1.24063576e-14
9.80856062e-15
7.78962724e-15
6.22127536e-15
5.00222817e-15
4.05253099e-15
3.31141587e-15
2.73388711e-15
2.28612442e-15
1.93827291e-15
1.66930965e-15
1.46073333e-15
1.30203392e-15
1.18257703e-15
1.09492672e-15
1.03320332e-15
9.92303654e-16
9.69816597e-16
9.59823344e-16
9.60910056e-16
9.70605331e-16
9.87229763e-16
1.00949496e-15
1.03552959e-15
1.06537291e-15
1.09871844e-15
1.13479118e-15
1.17110309e-15
1.21148189e-15
1.26047767e-15
1.31776311e-15
1.38405873e-15
1.45975722e-15
1.54496254e-15
1.63860558e-15
1.73931328e-15
1.84569398e-15
1.95690214e-15
2.07396271e-15
2.19975106e-15
2.33845882e-15
2.49506809e-15
2.67469557e-15
2.88173083e-15
3.11925496e-15
3.38923557e-15
3.69405573e-15
4.03876215e-15
4.39529044e-15
4.77717953e-15
5.18042691e-15
5.59897189e-15
6.02723412e-15
6.46028675e-15
6.89370707e-15
7.32361532e-15
7.74691501e-15
8.16165872e-15
8.56747877e-15
8.96602684e-15
9.36134158e-15
9.75999644e-15
1.01707997e-14
1.06038068e-14
1.10688046e-14
1.15727837e-14
1.21000937e-14
1.26541061e-14
1.32232431e-14
1.37933782e-14
1.4350541e-14
1.48828049e-14
1.53813895e-14
1.58409486e-14
1.62591618e-14
1.66357998e-14
1.69712084e-14
1.72637174e-14
1.75043782e-14
1.76651415e-14
4.22792199e-08
7.75897089e-08
1.27969682e-07
2.05472205e-07
3.24853193e-07
4.77722188e-07
6.44145893e-07
8.07971577e-07
9.6211394e-07
1.10762326e-06
1.250099e-06
1.39461848e-06
1.5418203e-06
1.68947072e-06
1.83410983e-06
1.97306699e-06
2.10566828e-06
2.2330925e-06
2.35713372e-06
2.47881153e-06
2.59817454e-06
2.71459896e-06
2.8274859e-06
2.93657348e-06
3.04228093e-06
3.14519394e-06
3.24629023e-06
3.34522938e-06
3.44175664e-06
3.53508788e-06
3.62459897e-06
3.71014892e-06
3.79231438e-06
3.87228345e-06
3.95148077e-06
4.03112417e-06
4.11177677e-06
4.19330364e-06
4.27500923e-06
4.35611114e-06
4.43610093e-06
4.51496421e-06
4.59317644e-06
4.67143776e-06
4.75068431e-06
4.83147614e-06
4.91405738e-06
4.99826761e-06
5.08371926e-06
5.17005057e-06
5.25712688e-06
5.34513106e-06
5.43448658e-06
5.52573191e-06
5.61927753e-06
5.71528678e-06
5.81360256e-06
5.91385853e-06
6.0156384e-06
6.11862136e-06
6.22273895e-06
6.32820495e-06
6.43555175e-06
6.54535731e-06
6.65832069e-06
6.77502906e-06
6.89599887e-06
7.02171117e-06
7.15258547e-06
7.28888794e-06
7.43070677e-06
7.57787237e-06
7.72999225e-06
7.88649266e-06
8.04676372e-06
8.21031606e-06
8.37673455e-06
8.5459701e-06
8.71808771e-06
8.89327671e-06
9.0717557e-06
9.25362579e-06
9.43878954e-06
9.62694088e-06
9.81752852e-06
1.00098868e-05
1.02032002e-05
1.03966513e-05
1.05894708e-05
1.07809384e-05
1.09703881e-05
1.11571606e-05
1.13405568e-05
1.1519787e-05
1.1693911e-05
1.18617856e-05
1.20220445e-05
1.21731124e-05
1.2313104e-05
1.2439876e-05
1.25509958e-05
1.26436475e-05
1.27146146e-05
1.27601521e-05
1.27758391e-05
1.27568249e-05
1.26979946e-05
1.2593932e-05
1.24388322e-05
1.22266198e-05
1.19512201e-05
1.16075094e-05
1.11918113e-05
1.07023371e-05
1.01395536e-05
9.50639445e-06
8.80813619e-06
8.05197627e-06
7.24710727e-06
6.40578195e-06
5.54455085e-06
4.68647184e-06
3.8609101e-06
3.09972551e-06
2.42890195e-06
1.86337087e-06
1.40473499e-06
1.0449181e-06
7.69629836e-07
5.62821385e-07
4.0949582e-07
2.9697585e-07
2.14874859e-07
1.55248629e-07
1.12139651e-07
8.10168483e-08
5.85990968e-08
4.23975815e-08
3.06939192e-08
2.22417857e-08
1.61347095e-08
1.17184088e-08
8.5215425e-09
6.20487214e-09
4.52416613e-09
3.30339551e-09
2.41556772e-09
1.76900289e-09
1.29746807e-09
9.53075092e-10
7.01164322e-10
5.16621288e-10
3.81224962e-10
2.81739111e-10
2.08536995e-10
1.5463165e-10
1.14946956e-10
8.56774817e-11
6.40374804e-11
4.79964736e-11
3.60682703e-11
2.7146613e-11
2.04327303e-11
1.53780207e-11
1.15741862e-11
8.72064396e-12
6.58036633e-12
4.97295364e-12
3.76397891e-12
2.85332571e-12
2.16633558e-12
1.64727954e-12
1.25451288e-12
9.56904923e-13
7.30969586e-13
5.59194142e-13
4.28414715e-13
3.28703374e-13
2.5257059e-13
1.94358562e-13
1.49787235e-13
1.15613926e-13
8.9377847e-14
6.92089902e-14
5.36850667e-14
4.17231818e-14
3.24977817e-14
2.53740738e-14
1.98651358e-14
1.55999846e-14
1.2294152e-14
9.7286503e-15
7.73461648e-15
6.18393287e-15
4.97750878e-15
4.03824648e-15
3.30681032e-15
2.73661046e-15
2.29353898e-15
1.94933088e-15
1.68386483e-15
1.47902932e-15
1.32294758e-15
1.20543149e-15
1.11968336e-15
1.05971655e-15
1.02088227e-15
9.99877741e-16
9.91450954e-16
9.94278891e-16
1.00565569e-15
1.02417916e-15
1.04814877e-15
1.07628813e-15
1.10815244e-15
1.14339398e-15
1.1815234e-15
1.22053921e-15
1.26334276e-15
1.31348369e-15
1.37214022e-15
1.43991788e-15
1.51719934e-15
1.60422573e-15
1.69965526e-15
1.80215345e-15
1.91051251e-15
2.02406358e-15
2.14389682e-15
2.27286312e-15
2.41511494e-15
2.5755193e-15
2.75898668e-15
2.96965975e-15
3.2104195e-15
3.48310196e-15
3.79010426e-15
4.14048572e-15
4.49489775e-15
4.8771733e-15
5.28077213e-15
5.69924657e-15
6.12715532e-15
6.55977008e-15
6.99280953e-15
7.42247945e-15
7.84573263e-15
8.26064606e-15
8.66685262e-15
9.06597387e-15
9.46197723e-15
9.86131263e-15
1.02726037e-14
1.0705644e-14
1.11697314e-14
1.16699035e-14
1.21960945e-14
1.27469746e-14
1.33118543e-14
1.38771571e-14
1.4429303e-14
1.49566621e-14
1.54506613e-14
1.59060794e-14
1.63206567e-14
1.66941802e-14
1.70269789e-14
1.73173581e-14
1.75563787e-14
1.77161782e-14
9.65428984e-07
1.09500718e-06
1.44706635e-06
2.04902151e-06
2.8834194e-06
3.49873395e-06
3.76054147e-06
3.79354923e-06
3.75263986e-06
3.74595285e-06
3.8255134e-06
3.97604045e-06
4.14142657e-06
4.28286877e-06
4.38729479e-06
4.46105856e-06
4.52198246e-06
4.58837927e-06
4.66660518e-06
4.75064989e-06
4.83172984e-06
4.9044176e-06
4.96831955e-06
5.02652749e-06
5.08382181e-06
5.14395778e-06
5.20775337e-06
5.27140498e-06
5.33048584e-06
5.38214103e-06
5.42630856e-06
5.46542839e-06
5.50356338e-06
5.54495762e-06
5.59259854e-06
5.64703634e-06
5.70612592e-06
5.76640294e-06
5.82481337e-06
5.87995413e-06
5.93225218e-06
5.98347785e-06
6.03594082e-06
6.09159133e-06
6.15184615e-06
6.21673867e-06
6.2851078e-06
6.35524706e-06
6.42577369e-06
6.49613608e-06
6.5666735e-06
6.63835119e-06
6.71228387e-06
6.78930646e-06
6.86953356e-06
6.95238657e-06
7.03678612e-06
7.12164688e-06
7.20624851e-06
7.29039803e-06
7.37446985e-06
7.45937362e-06
7.5462961e-06
7.63617411e-06
7.72979021e-06
7.82767231e-06
7.93024138e-06
8.03785958e-06
8.1508205e-06
8.26916235e-06
8.39265661e-06
8.52070694e-06
8.6525142e-06
8.78721027e-06
8.92410549e-06
9.06285229e-06
9.2034404e-06
9.34621143e-06
9.49164897e-06
9.64028058e-06
9.79248766e-06
9.94837155e-06
1.01076909e-05
1.02698921e-05
1.0434166e-05
1.0599621e-05
1.07653036e-05
1.09303589e-05
1.10940526e-05
1.12557413e-05
1.14148369e-05
1.15707225e-05
1.17226896e-05
1.18698654e-05
1.20111662e-05
1.21452607e-05
1.22705516e-05
1.23852467e-05
1.24871897e-05
1.25740652e-05
1.26432262e-05
1.26917028e-05
1.27161672e-05
1.27127781e-05
1.26769778e-05
1.26041162e-05
1.24895521e-05
1.23285027e-05
1.2115944e-05
1.18467645e-05
1.15160365e-05
1.11203214e-05
1.06577553e-05
1.01282851e-05
9.53391879e-06
8.87896107e-06
8.16992708e-06
7.41526038e-06
6.62567818e-06
5.81520537e-06
5.00097235e-06
4.20488582e-06
3.45233127e-06
2.76881548e-06
2.17215517e-06
1.67141888e-06
1.26513693e-06
9.45633641e-07
7.00123992e-07
5.14677809e-07
3.76386099e-07
2.7437113e-07
1.9947337e-07
1.44771148e-07
1.05045689e-07
7.62006694e-08
5.52847795e-08
4.01171679e-08
2.91232966e-08
2.11575955e-08
1.5384662e-08
1.11981722e-08
8.15979782e-09
5.9527482e-09
4.34804466e-09
3.18008107e-09
2.32902393e-09
1.70812173e-09
1.25453949e-09
9.227355e-10
6.79673745e-10
5.01365639e-10
3.7037274e-10
2.7400408e-10
2.03010211e-10
1.50665751e-10
1.12081168e-10
8.3608062e-11
6.25429023e-11
4.6916333e-11
3.52874749e-11
2.658742e-11
2.00310722e-11
1.50876604e-11
1.13627991e-11
8.56517232e-12
6.46612315e-12
4.88902311e-12
3.70228023e-12
2.80792365e-12
2.13288158e-12
1.62259189e-12
1.23626472e-12
9.43405856e-13
7.20942234e-13
5.51744095e-13
4.22870927e-13
3.24571677e-13
2.49486899e-13
1.92054083e-13
1.48063064e-13
1.14322736e-13
8.8410497e-14
6.84843315e-14
5.31423637e-14
4.13170387e-14
3.21945953e-14
2.5148678e-14
1.96984161e-14
1.54771541e-14
1.22043124e-14
9.6643253e-15
7.68994844e-15
6.15401197e-15
4.95861475e-15
4.02783533e-15
3.30351302e-15
2.73897915e-15
2.30017112e-15
1.95940557e-15
1.69674343e-15
1.49447581e-15
1.34045989e-15
1.22476535e-15
1.14074095e-15
1.08223729e-15
1.0449228e-15
1.02517003e-15
1.01804055e-15
1.02232406e-15
1.03514914e-15
1.0551953e-15
1.08063069e-15
1.11042014e-15
1.1439739e-15
1.18085916e-15
1.22065088e-15
1.26157008e-15
1.30624546e-15
1.35775146e-15
1.41768887e-15
1.48672541e-15
1.56534053e-15
1.65382164e-15
1.75074739e-15
1.8547571e-15
1.96476207e-15
2.08024572e-15
2.20235921e-15
2.3339411e-15
2.47909003e-15
2.64256901e-15
2.82911488e-15
3.04268966e-15
3.28602459e-15
3.56084302e-15
3.86942486e-15
4.2252235e-15
4.57681703e-15
4.95966847e-15
5.36358689e-15
5.78197559e-15
6.20956404e-15
6.64179761e-15
7.07450761e-15
7.5039657e-15
7.92716266e-15
8.34219411e-15
8.7486921e-15
9.14825245e-15
9.54478351e-15
9.94463415e-15
1.03562784e-14
1.0789304e-14
1.12526723e-14
1.1750652e-14
1.22750997e-14
1.28232157e-14
1.33845673e-14
1.3945915e-14
1.44939699e-14
1.50173337e-14
1.55075991e-14
1.59596463e-14
1.63712643e-14
1.67422514e-14
1.70729228e-14
1.73615652e-14
1.7599245e-14
1.77582471e-14
2.46750247e-51
4.88438407e-51
5.94549031e-51
5.24224341e-51
3.41655629e-51
2.00857564e-51
1.1845466e-51
7.05966344e-52
4.27641985e-52
2.50193609e-52
1.48118367e-52
9.08832249e-53
5.61709153e-53
3.56564426e-53
2.3386137e-53
6.27002154e-53
3.24431323e-51
2.18675736e-49
1.4802643e-47
1.00497436e-45
6.85714271e-44
4.68900927e-42
3.20997912e-40
2.20305523e-38
1.51819524e-36
1.04821121e-34
7.24469161e-33
5.01250912e-31
3.47371216e-29
2.41593432e-27
1.68697762e-25
1.18120572e-23
8.29419059e-22
5.85418203e-20
4.15814077e-18
2.97891942e-16
2.16793131e-14
1.62015202e-12
1.28647874e-10
1.11168371e-08
4.76882702e-51
5.10575848e-51
5.04843603e-51
3.7377459e-51
2.71378096e-51
1.91707547e-51
1.33750642e-51
9.13817425e-52
6.33631537e-52
4.2775114e-52
2.83412274e-52
1.91242123e-52
1.25808281e-52
8.40982066e-53
5.7289075e-53
4.75372206e-53
5.74490533e-52
3.67828808e-50
2.48186301e-48
1.68341648e-46
1.14602281e-44
7.81446374e-43
5.34408227e-41
3.6682346e-39
2.52455713e-37
1.73946515e-35
1.20065096e-33
8.30383112e-32
5.76018203e-30
4.00819521e-28
2.79506026e-26
1.95166934e-24
1.36499646e-22
9.56138732e-21
6.69622631e-19
4.68125091e-17
3.26207306e-15
2.2572043e-13
1.53855411e-11
9.9286757e-10
1.88558987e-51
2.15512201e-51
2.47357692e-51
2.44582741e-51
2.12768791e-51
1.84518234e-51
1.47116253e-51
1.18189605e-51
9.04159446e-52
6.96238101e-52
5.20172604e-52
3.89596524e-52
2.8569528e-52
2.17096271e-52
1.61483189e-52
1.19596587e-52
1.92022567e-52
7.06146848e-51
4.6905001e-49
3.16381336e-47
2.14232163e-45
1.45421209e-43
9.91558507e-42
6.79022029e-40
4.66002835e-38
3.20167564e-36
2.20439719e-34
1.5212487e-32
1.05271907e-30
7.29319718e-29
5.04431927e-27
3.47776182e-25
2.38773339e-23
1.62645896e-21
1.09329313e-19
7.2068242e-18
4.61253721e-16
2.82640046e-14
1.60446118e-12
7.96874451e-11
3.48945651e-51
2.74951454e-51
2.56536641e-51
2.24100158e-51
2.09909601e-51
1.75829122e-51
1.51927904e-51
1.23910667e-51
1.00353366e-51
8.20762523e-52
6.44254045e-52
5.09689162e-52
4.02710113e-52
3.17318991e-52
2.45487237e-52
1.90696954e-52
1.69357469e-52
1.54979366e-51
9.52043482e-50
6.34753385e-48
4.25866959e-46
2.87023734e-44
1.94408536e-42
1.32204485e-40
9.01399185e-39
6.15466535e-37
4.20686274e-35
2.87729511e-33
1.96753083e-31