/*--------------------------------*- C++ -*----------------------------------*\
  =========                 |
  \\      /  F ield         | OpenFOAM: The Open Source CFD Toolbox
   \\    /   O peration     | Website:  https://openfoam.org
    \\  /    A nd           | Version:  6
     \\/     M anipulation  |
\*---------------------------------------------------------------------------*/
FoamFile
{
    version     2.0;
    format      ascii;
    class       volScalarField;
    location    "25000";
    object      CH;
}
// * * * * * * * * * * * * * * * * * * * * * * * * * * * * * * * * * * * * * //

dimensions      [0 0 0 0 0 0 0];

internalField   nonuniform List<scalar> 
44870
(
5.57015888e-60
1.77444828e-59
1.99824319e-59
1.67980292e-59
1.66310953e-59
1.3790595e-59
1.28128098e-59
1.58967717e-59
1.33612797e-59
1.47069544e-59
2.39146953e-59
1.77529375e-59
1.48670435e-59
1.69122841e-59
2.26400148e-59
1.98041935e-59
1.67672506e-59
2.24414808e-59
2.17628475e-59
3.44883277e-59
3.01384236e-59
2.59807774e-59
3.23655287e-59
3.14886136e-59
4.37418725e-59
3.25834084e-57
9.42264538e-55
2.81435181e-52
8.6150122e-50
2.69791349e-47
8.63353604e-45
2.8150778e-42
9.32853399e-40
3.12531431e-37
1.05236346e-34
3.52319106e-32
1.15542772e-29
3.61223313e-27
1.02178007e-24
2.38106675e-22
1.22614306e-59
1.13046913e-59
1.0999588e-59
1.01292257e-59
1.15737189e-59
2.21476931e-59
2.15917932e-59
1.84627565e-59
1.7746789e-59
1.78894383e-59
2.15760494e-59
1.8022765e-59
3.06619881e-59
2.07922157e-59
1.59151604e-59
1.36624347e-59
1.52393989e-59
1.4358547e-59
1.50793601e-59
2.5631939e-59
2.18445518e-59
2.21098936e-59
1.8283654e-59
2.39821393e-59
2.23683976e-59
8.71025736e-58
3.01736118e-55
1.11872358e-52
4.33093073e-50
1.74513344e-47
7.30400155e-45
3.16383355e-42
1.4144135e-39
6.49015781e-37
3.03984413e-34
1.43810054e-31
6.7792097e-29
3.11227419e-26
1.32652996e-23
4.94954691e-21
1.12638902e-59
2.25244275e-59
2.49153407e-59
1.99562933e-59
2.04114045e-59
2.01530841e-59
2.04647726e-59
2.15625519e-59
2.13349058e-59
1.77575716e-59
1.48269033e-59
2.72975991e-59
1.90199485e-59
1.4961306e-59
1.53502043e-59
2.36252298e-59
2.55953263e-59
2.03995915e-59
2.49381943e-59
1.51824325e-59
2.51318473e-59
2.08913583e-59
2.14448903e-59
3.11688345e-59
2.3479688e-59
4.65149987e-59
8.5523865e-57
4.72462004e-54
3.09078452e-51
2.28678918e-48
1.81193611e-45
1.4955469e-42
1.24887016e-39
1.04738452e-36
8.64491384e-34
7.01757398e-31
5.47198888e-28
4.09836686e-25
2.79380049e-22
1.72539535e-19
1.93343777e-59
1.97308975e-59
1.43986188e-59
3.45090699e-59
2.39364063e-59
1.44961167e-59
1.00913291e-59
6.13566006e-60
9.64642287e-60
7.15696853e-60
1.39663709e-59
2.05005162e-59
1.17088457e-59
8.48016814e-60
3.63419959e-59
2.17093195e-59
6.57335303e-60
1.78140959e-59
2.60958939e-59
2.06649033e-59
1.32688167e-59
1.34392569e-59
4.33217614e-60
1.271226e-59
3.39147925e-59
2.24723746e-59
1.05068761e-56
1.14063824e-53
1.25152487e-50
1.37762795e-47
1.50332452e-44
1.62564534e-41
1.7187848e-38
1.77816515e-35
1.77514754e-32
1.71196681e-29
1.56943305e-26
1.36582469e-23
1.09142836e-20
7.85177031e-18
1.88373985e-59
1.28824816e-59
1.3188745e-59
1.57313169e-59
6.83842569e-60
3.87231906e-59
8.52600001e-60
3.51299924e-60
2.69362369e-59
4.1943566e-59
2.46673555e-59
3.11171931e-59
9.05079894e-60
2.53966769e-60
3.25195173e-59
7.17334772e-60
2.12314093e-59
4.42774987e-60
1.5823508e-60
3.55557532e-60
1.46811241e-60
5.38915707e-61
3.83353898e-60
2.29713239e-59
7.5832868e-59
3.28764831e-58
3.08763523e-55
3.06463887e-52
3.04142503e-49
3.01698211e-46
2.99303307e-43
2.96831991e-40
2.94446567e-37
2.9198841e-34
2.89674232e-31
2.873708e-28
2.8516812e-25
2.83027349e-22
2.80947247e-19
2.80701759e-16
1.95753855e-20
4.20804819e-20
5.6704071e-20
6.25526827e-20
6.56267376e-20
3.82981659e-19
1.23040084e-18
2.49511554e-18
3.84321726e-18
4.96923234e-18
5.67309656e-18
6.04920039e-18
6.35215211e-18
6.82193999e-18
7.49476255e-18
8.2423846e-18
8.88500097e-18
9.24733054e-18
9.32304528e-18
9.33742568e-18
9.77068924e-18
1.10492786e-17
1.33453604e-17
1.65112836e-17
2.01557224e-17
2.38148437e-17
2.70499935e-17
3.02749936e-17
3.48100867e-17
4.36238142e-17
5.99245388e-17
8.66439391e-17
1.25539647e-16
1.75965324e-16
2.36837781e-16
3.04870491e-16
3.81726763e-16
4.7467098e-16
6.04748554e-16
8.02054804e-16
1.10436759e-15
1.54592141e-15
2.15132764e-15
2.92770876e-15
3.8736861e-15
4.98317755e-15
6.29490001e-15
7.94110498e-15
1.01795977e-14
1.33825186e-14
1.7974107e-14
2.434759e-14
3.27764211e-14
4.33836742e-14
5.61809388e-14
7.12847894e-14
8.92599413e-14
1.11542867e-13
1.40662023e-13
1.80111899e-13
2.33812385e-13
3.05371601e-13
3.97618736e-13
5.12612076e-13
6.52528639e-13
8.2027574e-13
1.02047035e-12
1.25852489e-12
1.54027232e-12
1.87012814e-12
2.25219614e-12
2.6928233e-12
3.20598573e-12
3.82274669e-12
4.59048414e-12
5.58111826e-12
6.86415223e-12
8.50827882e-12
1.0553844e-11
1.30086153e-11
1.58448515e-11
1.90133949e-11
2.24720372e-11
2.62142215e-11
3.03065233e-11
3.49074617e-11
4.02894637e-11
4.67973886e-11
5.48252387e-11
6.47550337e-11
7.68882071e-11
9.14181783e-11
1.08398789e-10
1.27779833e-10
1.49460263e-10
1.73363802e-10
1.99518491e-10
2.28135188e-10
2.59657115e-10
2.94811942e-10
3.34613222e-10
3.80301486e-10
4.33311743e-10
4.95268145e-10
5.67860728e-10
6.52974906e-10
7.52734252e-10
8.69472903e-10
1.00613085e-09
1.16607432e-09
1.3533206e-09
1.57281576e-09
1.83173609e-09
2.14088956e-09
2.51524596e-09
2.97164281e-09
3.51919275e-09
4.18852933e-09
5.03803515e-09
6.15002145e-09
7.65836534e-09
9.78341042e-09
1.28714028e-08
1.74068939e-08
2.39331499e-08
3.28216032e-08
4.39732179e-08
5.66616835e-08
6.97067731e-08
8.18698458e-08
9.22008668e-08
1.00185638e-07
1.05761756e-07
1.09172804e-07
1.10787959e-07
1.11057563e-07
1.10393623e-07
1.0915343e-07
1.07529629e-07
1.05582838e-07
1.03210267e-07
9.90253151e-08
8.94199672e-08
7.13225715e-08
5.05527899e-08
3.44472735e-08
2.37119511e-08
1.6537317e-08
1.16491433e-08
8.2702107e-09
5.90890191e-09
4.24450602e-09
3.0630757e-09
2.21949931e-09
1.61409436e-09
1.17770604e-09
8.61924761e-10
6.3266139e-10
4.66154392e-10
3.45894356e-10
2.58150633e-10
1.93677478e-10
1.45841654e-10
1.09955893e-10
8.27532615e-11
6.22051741e-11
4.67445032e-11
3.5134737e-11
2.64253805e-11
1.98939378e-11
1.49953475e-11
1.131945e-11
8.5586387e-12
6.48282168e-12
4.91910018e-12
3.7382923e-12
2.84562747e-12
2.16984506e-12
1.65742499e-12
1.26822771e-12
9.72120057e-13
7.46447846e-13
5.74156189e-13
4.4239248e-13
3.41455173e-13
2.63999383e-13
2.04453501e-13
1.58594954e-13
1.23224981e-13
9.59067668e-14
7.47597062e-14
5.83653412e-14
4.56248004e-14
3.57271241e-14
2.80227262e-14
2.20030479e-14
1.72823763e-14
1.35834865e-14
1.06907789e-14
8.41791669e-15
6.62900431e-15
5.21231342e-15
4.10038158e-15
3.22670816e-15
2.53842224e-15
1.99665505e-15
1.56781551e-15
1.23434719e-15
9.72399229e-16
7.65519701e-16
6.01575124e-16
4.71563848e-16
3.69665297e-16
2.89186848e-16
2.25759331e-16
1.75612086e-16
1.36150631e-16
1.05007079e-16
8.08290869e-17
6.24983088e-17
4.82109887e-17
3.72125687e-17
2.87911636e-17
2.23161053e-17
1.73230193e-17
1.34608066e-17
1.04650548e-17
8.13128677e-18
6.30684533e-18
4.88224887e-18
3.77554459e-18
2.92165431e-18
2.26726681e-18
1.76822853e-18
1.38824099e-18
1.09811551e-18
8.74591923e-19
6.99516339e-19
5.65826616e-19
4.61304704e-19
3.78242373e-19
3.11420409e-19
2.57103332e-19
2.12553699e-19
1.757412e-19
1.45145116e-19
1.1961523e-19
9.82726912e-20
8.04381079e-20
6.55781986e-20
5.32652861e-20
4.31457657e-20
3.49152383e-20
2.82990816e-20
2.3034542e-20
1.8833731e-20
1.56551159e-20
1.31646032e-20
1.1204566e-20
9.64618472e-21
8.38655505e-21
7.3472625e-21
6.47053806e-21
5.71510611e-21
5.05253947e-21
4.46445811e-21
3.94108007e-21
3.48208551e-21
3.10240662e-21
2.84931257e-21
5.65482095e-19
8.92811068e-19
9.10190913e-19
7.8914438e-19
7.51128028e-19
1.21844691e-17
3.5516316e-17
6.13705069e-17
8.03822006e-17
8.90160811e-17
8.77746163e-17
8.47710172e-17
8.82665403e-17
1.00452785e-16
1.16704296e-16
1.30551667e-16
1.37623762e-16
1.36197451e-16
1.29753109e-16
1.29184152e-16
1.47501625e-16
1.89509215e-16
2.49530581e-16
3.16196119e-16
3.75810243e-16
4.20615401e-16
4.47505936e-16
4.79115813e-16
5.63659921e-16
7.63440158e-16
1.12007523e-15
1.64017872e-15
2.28876623e-15
3.00252313e-15
3.71258973e-15
4.37218634e-15
5.03905929e-15
5.90911752e-15
7.30711714e-15
9.54790991e-15
1.28406979e-14
1.71703496e-14
2.23315987e-14
2.79465552e-14
3.36818776e-14
3.94385913e-14
4.57744704e-14
5.40271337e-14
6.60250018e-14
8.34822037e-14
1.07376226e-13
1.3761033e-13
1.73035624e-13
2.11908451e-13
2.52771239e-13
2.95840081e-13
3.44319272e-13
4.04854793e-13
4.86343858e-13
5.97554268e-13
7.44521265e-13
9.29248686e-13
1.15048931e-12
1.40650572e-12
1.6982232e-12
2.03022439e-12
2.41054457e-12
2.8463926e-12
3.34210821e-12
3.89733965e-12
4.51241435e-12
5.19720073e-12
5.9828745e-12
6.93394367e-12
8.13981138e-12
9.71263024e-12
1.17398002e-11
1.42819042e-11
1.73408992e-11
2.08690417e-11
2.47775911e-11
2.89732585e-11
3.34021721e-11
3.8087905e-11
4.31725769e-11
4.89267833e-11
5.57497304e-11
6.40999137e-11
7.44444623e-11
8.71852699e-11
1.02574263e-10
1.20703937e-10
1.41511697e-10
1.64837142e-10
1.90504815e-10
2.18417397e-10
2.48643591e-10
2.81491175e-10
3.17554922e-10
3.5776711e-10
4.03333673e-10
4.55685919e-10
5.16437191e-10
5.87365934e-10
6.70287691e-10
7.67235072e-10
8.80491318e-10
1.01259779e-09
1.16678537e-09
1.34674766e-09
1.55679185e-09
1.80230882e-09
2.09129808e-09
2.43604933e-09
2.85318201e-09
3.36127905e-09
3.96868419e-09
4.70979633e-09
5.65085079e-09
6.88056687e-09
8.54226803e-09
1.08677397e-08
1.42119912e-08
1.90554797e-08
2.59135434e-08
3.51026737e-08
4.64623529e-08
5.92229137e-08
7.22025104e-08
8.41951511e-08
9.42969581e-08
1.0203045e-07
1.07366831e-07
1.10565274e-07
1.11987708e-07
1.12087086e-07
1.11262844e-07
1.09862828e-07
1.08038898e-07
1.05929712e-07
1.03293844e-07
9.85560007e-08
8.79653612e-08
6.9404471e-08
4.9114563e-08
3.36102916e-08
2.32333069e-08
1.62504122e-08
1.14706871e-08
8.15624783e-09
5.834683e-09
4.19542537e-09
3.03021487e-09
2.19727003e-09
1.59892405e-09
1.16727765e-09
8.5470976e-10
6.27632958e-10
4.62476245e-10
3.43143925e-10
2.56135922e-10
1.92198345e-10
1.44741945e-10
1.09120984e-10
8.2142713e-11
6.17668482e-11
4.64313892e-11
3.49112371e-11
2.62657488e-11
1.97797513e-11
1.4913501e-11
1.12606414e-11
8.51627296e-12
6.45225018e-12
4.89704181e-12
3.72226436e-12
2.83395795e-12
2.16132051e-12
1.65117478e-12
1.26362888e-12
9.68725456e-13
7.4393441e-13
5.72288843e-13
4.41000396e-13
3.40415041e-13
2.63221161e-13
2.03869226e-13
1.58153493e-13
1.22890359e-13
9.56543899e-14
7.45674217e-14
5.82198384e-14
4.55121664e-14
3.56406889e-14
2.79581846e-14
2.19546296e-14
1.72445058e-14
1.3553e-14
1.06678679e-14
8.40151233e-15
6.6171046e-15
5.20275776e-15
4.09253414e-15
3.22114547e-15
2.5347814e-15
1.99409568e-15
1.56557681e-15
1.23254743e-15
9.7123288e-16
7.64811081e-16
6.01070851e-16
4.71112987e-16
3.69345761e-16
2.89029153e-16
2.25705067e-16
1.75590859e-16
1.3613853e-16
1.05004857e-16
8.08398323e-17
6.25436617e-17
4.82465435e-17
3.72401141e-17
2.88154146e-17
2.2337737e-17
1.73407823e-17
1.34744123e-17
1.04754135e-17
8.13938824e-18
6.31322817e-18
4.88724013e-18
3.77947957e-18
2.92480406e-18
2.2697936e-18
1.77023193e-18
1.38980453e-18
1.09932017e-18
8.75522794e-19
7.00067881e-19
5.66315361e-19
4.61677897e-19
3.78507792e-19
3.11601562e-19
2.57222531e-19
2.12628929e-19
1.75786323e-19
1.45170515e-19
1.19628449e-19
9.82790447e-20
8.04411944e-20
6.55803155e-20
5.32677475e-20
4.31491583e-20
3.49196474e-20
2.83043076e-20
2.30403588e-20
1.8834852e-20
1.56617337e-20
1.31693972e-20
1.12080892e-20
9.64866172e-21
8.38811483e-21
7.34803336e-21
6.47065624e-21
5.71470545e-21
5.0517452e-21
4.46338504e-21
3.93982696e-21
3.48073435e-21
3.10101928e-21
2.84788313e-21
3.25124761e-17
3.56855528e-17
2.59964555e-17
1.67409039e-17
1.9084619e-17
9.68747001e-16
2.30698101e-15
3.21454553e-15
3.42871198e-15
3.12472014e-15
2.56922845e-15
2.35429771e-15
2.73952029e-15
3.43543515e-15
3.99408656e-15
4.16504472e-15
3.9373484e-15
3.43773093e-15
2.94838655e-15
3.05266853e-15
4.03220312e-15
5.61031776e-15
7.23314017e-15
8.43277995e-15
8.97888413e-15
8.89593109e-15
8.43781805e-15
8.62954184e-15
1.08873602e-14
1.60768138e-14
2.39053705e-14
3.31627942e-14
4.22662794e-14
4.98598001e-14
5.51466889e-14
5.84573949e-14
6.22851727e-14
7.08969961e-14
8.83327134e-14
1.16066763e-13
1.52447682e-13
1.93162394e-13
2.33175192e-13
2.67877163e-13
2.95558678e-13
3.19477762e-13
3.500641e-13
4.01737861e-13
4.86224902e-13
6.06866572e-13
7.57079827e-13
9.23022587e-13
1.08837215e-12
1.23998908e-12
1.37446596e-12
1.50462219e-12
1.6610517e-12
1.88413035e-12
2.20862872e-12
2.64989468e-12
3.19874828e-12
3.82865934e-12
4.5111561e-12
5.23294713e-12
6.00152493e-12
6.83871547e-12
7.76737585e-12
8.79308517e-12
9.9024481e-12
1.10710833e-11
1.22915966e-11
1.36059325e-11
1.51299452e-11
1.70564198e-11
1.96045541e-11
2.29736949e-11
2.72455432e-11
3.23879204e-11
3.82393657e-11
4.45698793e-11
5.11332062e-11
5.77548888e-11
6.44076925e-11
7.12642137e-11
7.87260027e-11
8.73930346e-11
9.79884924e-11
1.11230043e-10
1.27700462e-10
1.47750071e-10
1.71431492e-10
1.98535858e-10
2.28683672e-10
2.61456736e-10
2.96538405e-10
3.3383008e-10
3.73558785e-10
4.16330612e-10
4.63152311e-10
5.15442042e-10
5.74860524e-10
6.432741e-10
7.22685859e-10
8.15223718e-10
9.22964413e-10
1.04825522e-09
1.19375561e-09
1.36251946e-09
1.55844566e-09
1.78600107e-09
2.05011935e-09
2.3573423e-09
2.71776005e-09
3.14696019e-09
3.66551064e-09
4.29485782e-09
5.04315792e-09
5.95414531e-09
7.11149585e-09
8.61769854e-09
1.06367081e-08
1.3423545e-08
1.73472092e-08
2.28700846e-08
3.04379535e-08
4.02451364e-08
5.20064387e-08
6.48699592e-08
7.76608613e-08
8.92504353e-08
9.88334435e-08
1.06005868e-07
1.10812471e-07
1.13542691e-07
1.14534984e-07
1.14253454e-07
1.13064804e-07
1.11296965e-07
1.0898874e-07
1.06506482e-07
1.03257611e-07
9.69327016e-08
8.44879372e-08
6.52828832e-08
4.61122734e-08
3.18831649e-08
2.22322856e-08
1.56438e-08
1.10907986e-08
7.91254376e-09
5.6754473e-09
4.08985925e-09
2.95939476e-09
2.14928431e-09
1.56613111e-09
1.14470935e-09
8.390813e-10
6.16736449e-10
4.54709562e-10
3.37246473e-10
2.51801464e-10
1.8900713e-10
1.42362115e-10
1.07313078e-10
8.08222878e-11
6.08189969e-11
4.57536763e-11
3.44269444e-11
2.59194586e-11
1.95318007e-11
1.47356138e-11
1.113272e-11
8.42404856e-12
6.38565979e-12
4.84893018e-12
3.6872762e-12
2.80848161e-12
2.14270408e-12
1.63752104e-12
1.25357972e-12
9.61304861e-13
7.38437791e-13
5.68205072e-13
4.37957128e-13
3.38140583e-13
2.61516904e-13
2.02588977e-13
1.57188897e-13
1.22161199e-13
9.51021074e-14
7.41528866e-14
5.79004158e-14
4.52687608e-14
3.54540581e-14
2.78154921e-14
2.18456519e-14
1.71616469e-14
1.34891572e-14
1.06189446e-14
8.3642437e-15
6.58943718e-15
5.18228161e-15
4.07686777e-15
3.2093536e-15
2.52610231e-15
1.98791819e-15
1.56100935e-15
1.22915704e-15
9.68742317e-16
7.6300036e-16
5.99846064e-16
4.70261086e-16
3.68780762e-16
2.8867705e-16
2.25513998e-16
1.75520567e-16
1.36144546e-16
1.05119659e-16
8.10174254e-17
6.26220543e-17
4.83205902e-17
3.73050193e-17
2.8870106e-17
2.23829191e-17
1.73774579e-17
1.35035024e-17
1.04979586e-17
8.15666702e-18
6.3265656e-18
4.89767625e-18
3.78775877e-18
2.93142967e-18
2.27509445e-18
1.77443893e-18
1.39310164e-18
1.10187168e-18
8.77490967e-19
7.01257126e-19
5.67368036e-19
4.62482105e-19
3.79080365e-19
3.11993189e-19
2.57480924e-19
2.12792583e-19
1.75884954e-19
1.45226398e-19
1.19657814e-19
9.82933469e-20
8.04482036e-20
6.55849967e-20
5.32729627e-20
4.3156219e-20
3.49287944e-20
2.831518e-20
2.30526491e-20
1.88620197e-20
1.56767186e-20
1.31795953e-20
1.12156237e-20
9.65398773e-21
8.39148871e-21
7.34971742e-21
6.47093349e-21
5.71386113e-21
5.05004992e-21
4.46108298e-21
3.93713044e-21
3.47781828e-21
3.09801607e-21
2.84482363e-21
2.71476547e-15
1.91922898e-15
9.98585744e-16
4.7619732e-16
1.07098509e-15
9.56932275e-14
1.74319924e-13
1.86681251e-13
1.55099169e-13
1.11320194e-13
7.31680171e-14
7.24641572e-14
1.00576916e-13
1.25008217e-13
1.28347415e-13
1.13051774e-13
8.8853332e-14
6.43998229e-14
5.00160888e-14
6.3956552e-14
1.00015816e-13
1.3675928e-13
1.58193624e-13
1.60233743e-13
1.47278573e-13
1.26289118e-13
1.06733418e-13
1.15196525e-13
1.72696203e-13
2.73261652e-13
3.89742185e-13
4.92452407e-13
5.61598842e-13
5.90781193e-13
5.84913033e-13
5.65316467e-13
5.80476977e-13
6.82108274e-13
8.88374826e-13
1.17167954e-12
1.47719596e-12
1.74720857e-12
1.94251087e-12
2.04725275e-12
2.08156942e-12
2.1153475e-12
2.2629663e-12
2.62110417e-12
3.20941664e-12
3.96125886e-12
4.75925011e-12
5.48385961e-12
6.05013735e-12
6.43195446e-12
6.6856937e-12
6.96157895e-12
7.46864031e-12
8.38464094e-12
9.76944605e-12
1.15407871e-11
1.35201688e-11
1.55223739e-11
1.74431442e-11
1.93003834e-11
2.1197838e-11
2.3246582e-11
2.54924785e-11
2.78793808e-11
3.02915144e-11
3.26282368e-11
3.49153432e-11
3.73897999e-11
4.05059887e-11
4.48438483e-11
5.08931331e-11
5.88879142e-11
6.86588672e-11
7.97339785e-11
9.1448593e-11
1.03147393e-10
1.14342923e-10
1.24855221e-10
1.34924057e-10
1.45251789e-10
1.56936161e-10
1.7131016e-10
1.89688509e-10
2.13117959e-10
2.42160219e-10
2.76794608e-10
3.16452482e-10
3.60222268e-10
4.07107892e-10
4.56297992e-10
5.07371514e-10
5.60426742e-10
6.161413e-10
6.75790114e-10
7.41203653e-10
8.14672035e-10
8.98622691e-10
9.95633544e-10
1.10829776e-09
1.23925291e-09
1.39093089e-09
1.56611406e-09
1.76816221e-09
2.00105621e-09
2.26982732e-09
2.58022808e-09
2.93821266e-09
3.35231084e-09
3.83688879e-09
4.41282741e-09
5.1070151e-09
5.94351497e-09
6.93114894e-09
8.13589691e-09
9.66501756e-09
1.1640594e-08
1.42569328e-08
1.77973809e-08
2.26360159e-08
2.91829965e-08
3.7760627e-08
4.83795436e-08
6.05977558e-08
7.34701772e-08
8.58590636e-08
9.67631465e-08
1.05519942e-07
1.11815154e-07
1.158089e-07
1.17824851e-07
1.18142672e-07
1.17263914e-07
1.15485767e-07
1.13108723e-07
1.10222321e-07
1.07088965e-07
1.02249666e-07
9.34824153e-08
7.86641995e-08
5.93588375e-08
4.21004054e-08
2.95404741e-08
2.08373318e-08
1.47836058e-08
1.05460108e-08
7.56032633e-09
5.44399208e-09
3.93573975e-09
2.85563957e-09
2.07877968e-09
1.51783092e-09
1.11140225e-09
8.15977286e-10
6.00607521e-10
4.4330896e-10
3.28678902e-10
2.45466757e-10
1.84319947e-10
1.3884753e-10
1.04655875e-10
7.88763372e-11
5.9422311e-11
4.47532793e-11
3.37106157e-11
2.54062189e-11
1.91636701e-11
1.44710806e-11
1.09422111e-11
8.28651685e-12
6.28625051e-12
4.77668428e-12
3.63484512e-12
2.77029492e-12
2.11478245e-12
1.61703037e-12
1.23849001e-12
9.50155665e-13
7.30175033e-13
5.62064733e-13
4.33381009e-13
3.34718665e-13
2.58950039e-13
2.00660347e-13
1.55738331e-13
1.21065842e-13
9.4269615e-14
7.35206902e-14
5.74201651e-14
4.49053965e-14
3.51751919e-14
2.75988061e-14
2.16788796e-14
1.70373715e-14
1.33958383e-14
1.05463489e-14
8.30670562e-15
6.54624317e-15
5.15199177e-15
4.05479802e-15
3.19201564e-15
2.51236271e-15
1.97806132e-15
1.55448013e-15
1.22461393e-15
9.65090579e-16
7.60041897e-16
5.97883687e-16
4.69114594e-16
3.68069487e-16
2.88152163e-16
2.25161588e-16
1.75392649e-16
1.36180886e-16
1.05342309e-16
8.12576309e-17
6.27402603e-17
4.84313536e-17
3.74091579e-17
2.8955827e-17
2.24500191e-17
1.7431031e-17
1.35468245e-17
1.05318432e-17
8.18219943e-18
6.34588576e-18
4.91272327e-18
3.79973816e-18
2.94103194e-18
2.28277892e-18
1.78055334e-18
1.39791555e-18
1.10561317e-18
8.80384846e-19
7.02985943e-19
5.68946242e-19
4.63681398e-19
3.79932329e-19
3.12575935e-19
2.57865622e-19
2.13036393e-19
1.76031988e-19
1.45309744e-19
1.19701601e-19
9.8314619e-20
8.04585294e-20
6.55917737e-20
5.32804624e-20
4.31664155e-20
3.49420803e-20
2.83310523e-20
2.30712492e-20
1.89009691e-20
1.56973895e-20
1.31945161e-20
1.12267783e-20
9.66190316e-21
8.396511e-21
7.35222457e-21
6.47133911e-21
5.71258949e-21
5.04750548e-21
4.45762919e-21
3.93308203e-21
3.47343632e-21
3.09349842e-21
2.84024978e-21
2.90349472e-13
9.88900102e-14
2.92989277e-14
9.06571242e-15
6.49974015e-14
7.51186527e-12
9.88871332e-12
7.70220205e-12
4.72487949e-12
2.53723219e-12
1.27652041e-12
2.0075603e-12
3.24170295e-12
3.55069693e-12
2.97922739e-12
2.10474034e-12
1.324031e-12
7.75189966e-13
6.39672726e-13
1.30051981e-12
2.15840507e-12
2.62321906e-12
2.58503874e-12
2.22167397e-12
1.74615194e-12
1.29684537e-12
1.01760185e-12
1.39454993e-12
2.51374616e-12
3.9179812e-12
5.07412153e-12
5.69628062e-12
5.76328449e-12
5.4081509e-12
4.82408367e-12
4.35097477e-12
4.58027173e-12
5.84843594e-12
7.90717677e-12
1.01370704e-11
1.19468203e-11
1.29959149e-11
1.32338682e-11
1.28119281e-11
1.21165685e-11
1.1872383e-11
1.29017483e-11
1.54851114e-11
1.91559564e-11
2.30333404e-11
2.62836683e-11
2.84022744e-11
2.92741281e-11
2.91601475e-11
2.87371519e-11
2.90292898e-11
3.10297417e-11
3.51404128e-11
4.09493919e-11
4.7487174e-11
5.37210856e-11
5.90130937e-11
6.33622014e-11
6.72738562e-11
7.13885926e-11
7.60475088e-11
8.11301476e-11
8.61652797e-11
9.06499034e-11
9.43810921e-11
9.77797175e-11
1.01987947e-10
1.08603169e-10
1.19151083e-10
1.34372817e-10
1.53899632e-10
1.76306124e-10
1.99680345e-10
2.22161741e-10
2.42411508e-10
2.59861041e-10
2.74859748e-10
2.88743754e-10
3.0373409e-10
3.22555176e-10
3.47928497e-10
3.81965141e-10
4.25779989e-10
4.79252438e-10
5.41073249e-10
6.09136443e-10
6.81125775e-10
7.55081549e-10
8.29822042e-10
9.05145305e-10
9.8186959e-10
1.06178448e-09
1.14754873e-09
1.24252284e-09
1.35035348e-09
1.47463795e-09
1.61894729e-09
1.78658929e-09
1.98083578e-09
2.20444928e-09
2.46075872e-09
2.75440068e-09
3.09084188e-09
3.47701539e-09
3.92060165e-09
4.42867272e-09
5.01328068e-09
5.69691438e-09
6.50872986e-09
7.48219419e-09
8.64125026e-09
1.00007281e-08
1.16736654e-08
1.37864869e-08
1.64837387e-08
1.99965053e-08
2.46276245e-08
3.07237033e-08
3.85809222e-08
4.83381534e-08
5.97786059e-08
7.2321211e-08
8.49416427e-08
9.65940133e-08
1.06457416e-07
1.14045127e-07
1.19116517e-07
1.22008376e-07
1.23063401e-07
1.22429381e-07
1.20716745e-07
1.18067361e-07
1.151402e-07
1.1130922e-07
1.06596001e-07
9.92581709e-08
8.7263062e-08
7.04554115e-08
5.23524954e-08
3.75969445e-08
2.68352046e-08
1.9171986e-08
1.3734885e-08
9.87232128e-09
7.12032137e-09
5.15263372e-09
3.74057492e-09
2.72362157e-09
1.9887125e-09
1.45594677e-09
1.06860792e-09
7.8621072e-10
5.79784806e-10
4.28617225e-10
3.17989482e-10
2.37417774e-10
1.78325734e-10
1.34317002e-10
1.0126343e-10
7.63893547e-11
5.76312507e-11
4.3466831e-11
3.27868277e-11
2.4742524e-11
1.86864506e-11
1.41273939e-11
1.06941959e-11
8.10713474e-12
6.15641116e-12
4.68199795e-12
3.56605585e-12
2.72014042e-12
2.07807548e-12
1.59006948e-12
1.21862002e-12
9.35463247e-13
7.1927859e-13
5.53963324e-13
4.2734185e-13
3.30200411e-13
2.55557384e-13
1.98110013e-13
1.5382217e-13
1.19620439e-13
9.31689422e-14
7.26801668e-14
5.67848804e-14
4.44276385e-14
3.48090489e-14
2.73115752e-14
2.14561065e-14
1.68732605e-14
1.32749712e-14
1.04517459e-14
8.23027023e-15
6.4879831e-15
5.11252311e-15
4.02696355e-15
3.16969288e-15
2.49395978e-15
1.96459728e-15
1.54621674e-15
1.21908419e-15
9.6043238e-16
7.56058327e-16
5.95223096e-16
4.67741281e-16
3.67249601e-16
2.87490948e-16
2.24669725e-16
1.75216862e-16
1.36260941e-16
1.05558679e-16
8.14695707e-17
6.28877867e-17
4.8581179e-17
3.75547995e-17
2.90729389e-17
2.25384306e-17
1.75005134e-17
1.36033724e-17
1.05759886e-17
8.21483462e-18
6.37009466e-18
4.93144819e-18
3.81466904e-18
2.95303475e-18
2.29242439e-18
1.78827775e-18
1.40404189e-18
1.11040521e-18
8.8412114e-19
7.05133902e-19
5.71038984e-19
4.65252177e-19
3.81043685e-19
3.13335609e-19
2.58366951e-19
2.13353882e-19
1.7622315e-19
1.45417746e-19
1.19757953e-19
9.83416021e-20
8.047127e-20
6.55999478e-20
5.32896591e-20
4.31792276e-20
3.4959029e-20
2.83514671e-20
2.30948891e-20
1.89363322e-20
1.57225348e-20
1.32137318e-20
1.12413363e-20
9.67227659e-21
8.4031057e-21
7.35551719e-21
6.47186417e-21
5.71090176e-21
5.04413704e-21
4.45305701e-21
3.92771925e-21
3.46762706e-21
3.08750457e-21
2.83419306e-21
3.00978216e-11
4.38050564e-12
6.55996342e-13
1.30970358e-13
3.50994259e-12
4.48187589e-10
3.93178415e-10
2.07875998e-10
8.90494784e-11
3.41408526e-11
1.28556132e-11
4.76755046e-11
7.14548329e-11
6.20114354e-11
4.0297059e-11
2.20428087e-11
1.08126386e-11
5.05809916e-12
6.30302752e-12
1.92355144e-11
2.8591255e-11
2.89528804e-11
2.37179411e-11
1.7189961e-11
1.16131134e-11
7.59047316e-12
6.02094551e-12
1.20644863e-11
2.32366528e-11
3.30310849e-11
3.77891556e-11
3.75009684e-11
3.38493964e-11
2.86561043e-11
2.34066429e-11
2.04841289e-11
2.3654396e-11
3.29588319e-11
4.44073045e-11
5.36208203e-11
5.82905066e-11
5.82795081e-11
5.47452282e-11
4.92880569e-11
4.42326342e-11
4.33042661e-11
4.94454616e-11
6.15531318e-11
7.54867521e-11
8.70275276e-11
9.37493094e-11
9.52358461e-11
9.24738928e-11
8.74471102e-11
8.32616037e-11
8.358666e-11
9.08493539e-11
1.04440039e-10
1.21147756e-10
1.37085907e-10
1.49507998e-10
1.57767593e-10
1.63294827e-10
1.68399165e-10
1.74866492e-10
1.82924231e-10
1.91420789e-10
1.98708323e-10
2.0367039e-10
2.06441078e-10
2.08916111e-10
2.1449223e-10
2.26876162e-10
2.48633761e-10
2.79737273e-10
3.17520218e-10
3.57708245e-10
3.95999266e-10
4.29198717e-10
4.55772762e-10
4.75921677e-10
4.91576136e-10
5.06264252e-10
5.24698129e-10
5.51809591e-10
5.91678727e-10
6.46650979e-10
7.17016492e-10
8.00906266e-10
8.94745298e-10
9.94267544e-10
1.09561116e-09
1.19613031e-09
1.29478569e-09
1.39219804e-09
1.49050095e-09
1.59306588e-09
1.70431201e-09
1.82924034e-09
1.97282314e-09
2.13968593e-09
2.33418583e-09
2.56004377e-09
2.82101224e-09
3.1198146e-09
3.46037631e-09
3.84883612e-09
4.29214327e-09
4.79931421e-09
5.37982983e-09
6.04106947e-09
6.79941397e-09
7.68765385e-09
8.74133458e-09
9.9947288e-09
1.14650502e-08
1.32010241e-08
1.53448888e-08
1.80323169e-08
2.14170906e-08
2.57539175e-08
3.13353669e-08
3.8448113e-08
4.72563802e-08
5.77529107e-08
6.95671767e-08
8.20867734e-08
9.42433632e-08
1.05104042e-07
1.13999282e-07
1.20568052e-07
1.24572239e-07
1.26546762e-07
1.26808295e-07
1.2532144e-07
1.22883864e-07
1.19714123e-07
1.16095734e-07
1.112983e-07
1.05048499e-07
9.5466505e-08
8.12521211e-08
6.40789917e-08
4.7629083e-08
3.4581101e-08
2.49442375e-08
1.79725955e-08
1.29628665e-08
9.36844617e-09
6.78731062e-09
4.93010668e-09
3.59043544e-09
2.62146114e-09
1.9186705e-09
1.40763343e-09
1.03507828e-09
7.62811338e-10
5.63373361e-10
4.17030595e-10
3.09665487e-10
2.31175398e-10
1.73646188e-10
1.3077901e-10
9.86312476e-11
7.44565211e-11
5.62309728e-11
4.24576219e-11
3.20594986e-11
2.42182057e-11
1.83082811e-11
1.3854287e-11
1.0496615e-11
7.96389269e-12
6.05258211e-12
4.60610189e-12
3.51071984e-12
2.67974439e-12
2.04847442e-12
1.56830334e-12
1.2025627e-12
9.23580258e-13
7.10458498e-13
5.47399074e-13
4.22444293e-13
3.26536098e-13
2.52807152e-13
1.96040763e-13
1.52263474e-13
1.18444187e-13
9.22771075e-14
7.20011431e-14
5.62684121e-14
4.40357293e-14
3.45101617e-14
2.70815301e-14
2.12782566e-14
1.67384472e-14
1.31734099e-14
1.03742511e-14
8.17068877e-15
6.44243218e-15
5.07940082e-15
4.00252777e-15
3.15134789e-15
2.48009585e-15
1.9542443e-15
1.5390426e-15
1.21396073e-15
9.56636008e-16
7.53201439e-16
5.93208883e-16
4.66465403e-16
3.66422908e-16
2.86973261e-16
2.24367895e-16
1.75096229e-16
1.36272209e-16
1.05659099e-16
8.16069791e-17
6.30157521e-17
4.87019046e-17
3.7662656e-17
2.9160862e-17
2.26083278e-17
1.75558035e-17
1.36465086e-17
1.06087042e-17
8.23915188e-18
6.38837835e-18
4.94560382e-18
3.82593072e-18
2.96215689e-18
2.29985633e-18
1.79430137e-18
1.40885776e-18
1.11419405e-18
8.87110252e-19
7.06715724e-19
5.72772593e-19
4.66518401e-19
3.81933555e-19
3.13942096e-19
2.58765817e-19
2.13605207e-19
1.76373348e-19
1.45501646e-19
1.19800924e-19
9.83615366e-20
8.04802792e-20
6.56057507e-20
5.32966703e-20
4.31894425e-20
3.497277e-20
2.83680925e-20
2.311388e-20
1.89598721e-20
1.57418443e-20
1.32290511e-20
1.12530144e-20
9.68056302e-21
8.4083095e-21
7.35802949e-21
6.47212683e-21
5.70936931e-21
5.04124419e-21
4.44919646e-21
3.92323041e-21
3.46278924e-21
3.08253024e-21
2.82918353e-21
5.27093355e-21
4.58827334e-21
3.33658186e-21
2.34975609e-21
1.64183207e-21
1.14643631e-21
8.03899486e-22
5.69622082e-22
4.10836757e-22
3.02216251e-22
2.25896545e-22
1.72062159e-22
1.33859562e-22
1.06425549e-22
8.57898497e-23
7.06841551e-23
5.93121668e-23
5.06208361e-23
4.37256487e-23
3.82765771e-23
3.39914037e-23
3.05661062e-23
2.77167874e-23
2.53653015e-23
2.34227338e-23
2.18930717e-23
2.05449448e-23
1.94073779e-23
1.83845786e-23
1.75152269e-23
1.68415197e-23
1.61029912e-23
1.07825131e-23
1.40484421e-23
6.17570337e-22
4.40503828e-20
3.20676433e-18
2.39739328e-16
1.90382846e-14
1.64443355e-12
1.8252874e-21
2.38076877e-21
2.28356514e-21
1.97846725e-21
1.63811442e-21
1.32380406e-21
1.05274003e-21
8.26990078e-22
6.46461745e-22
5.03585172e-22
3.92172898e-22
3.06936978e-22
2.42142107e-22
1.92647388e-22
1.54559302e-22
1.25841467e-22
1.03682056e-22
8.63504252e-23
7.28746002e-23
6.22633091e-23
5.36810329e-23
4.6709108e-23
4.10577048e-23
3.66379942e-23
3.29356817e-23
2.98708316e-23
2.72613387e-23
2.51753731e-23
2.33693234e-23
2.18696203e-23
2.05284231e-23
1.94048669e-23
1.72661886e-23
1.12438666e-23
1.04730598e-22
6.91851208e-21
4.8172336e-19
3.33115202e-17
2.26699565e-15
1.45725776e-13
5.41751878e-22
1.12665063e-21
1.3479101e-21
1.36528524e-21
1.28548451e-21
1.1626499e-21
1.02310109e-21
8.84196979e-22
7.5374816e-22
6.36095076e-22
5.32485577e-22
4.42843743e-22
3.67507895e-22
3.0476991e-22
2.52785473e-22
2.09657086e-22
1.74655939e-22
1.46264235e-22
1.22758822e-22
1.03692528e-22
8.80173197e-23
7.54319834e-23
6.49028764e-23
5.62707191e-23
4.93469918e-23
4.36006786e-23
3.88662036e-23
3.48310929e-23
3.15503852e-23
2.87746657e-23
2.64302756e-23
2.4436329e-23
2.25695795e-23
1.64843535e-23
2.77699882e-23
1.07076448e-21
6.79235496e-20
4.1539694e-18
2.34970865e-16
1.15759826e-14
1.07005411e-22
4.27220187e-22
8.38757583e-22
1.01429352e-21
1.0549667e-21
1.02114037e-21
9.50046104e-22
8.60544978e-22
7.65930348e-22
6.72090784e-22
5.83761152e-22
5.02530901e-22
4.29763175e-22
3.65668144e-22
3.10424213e-22
2.62566646e-22
2.2191306e-22
1.87529217e-22
1.58582967e-22
1.34398026e-22
1.14314922e-22
9.75375167e-23
8.35456118e-23
7.19208843e-23
6.23254391e-23
5.43985745e-23
4.77762529e-23
4.227158e-23