/*--------------------------------*- C++ -*----------------------------------*\
  =========                 |
  \\      /  F ield         | OpenFOAM: The Open Source CFD Toolbox
   \\    /   O peration     | Website:  https://openfoam.org
    \\  /    A nd           | Version:  6
     \\/     M anipulation  |
\*---------------------------------------------------------------------------*/
FoamFile
{
    version     2.0;
    format      ascii;
    class       volScalarField;
    location    "25000";
    object      CH2;
}
// * * * * * * * * * * * * * * * * * * * * * * * * * * * * * * * * * * * * * //

dimensions      [0 0 0 0 0 0 0];

internalField   nonuniform List<scalar> 
44870
(
1.67033016e-58
3.42769124e-58
4.41233123e-58
3.25697206e-58
3.19633988e-58
4.60506596e-58
4.81549155e-58
5.26274561e-58
4.99469952e-58
5.30289614e-58
3.82922336e-58
4.20306252e-58
4.62133919e-58
4.76669973e-58
4.92992482e-58
5.66201046e-58
5.86343793e-58
5.87589027e-58
6.18177013e-58
5.96986619e-58
5.51711691e-58
5.73491623e-58
6.75727883e-58
6.09499996e-58
2.11024475e-56
5.85610343e-54
1.70564394e-51
5.09398606e-49
1.55915653e-46
4.8822288e-44
1.56221318e-41
5.09345302e-39
1.68779001e-36
5.65457251e-34
1.90414191e-31
6.3756316e-29
2.09129298e-26
6.5399374e-24
1.85072905e-21
4.31571504e-19
2.66295353e-58
1.5978789e-58
3.47332583e-58
2.84278117e-58
3.49905174e-58
3.39513864e-58
4.46829843e-58
3.81978858e-58
4.36352116e-58
4.37506819e-58
4.13851273e-58
4.43852074e-58
4.80428439e-58
5.52826509e-58
5.44223614e-58
5.64420034e-58
5.99719073e-58
5.19511423e-58
5.48138265e-58
5.02426832e-58
5.13861092e-58
4.54498583e-58
3.85476443e-58
4.10378868e-58
4.88533593e-57
1.54044568e-54
5.45775782e-52
2.02333983e-49
7.83198238e-47
3.15553408e-44
1.32059956e-41
5.72011633e-39
2.55720796e-36
1.17348305e-33
5.49692673e-31
2.60093965e-28
1.22637415e-25
5.6319974e-23
2.40161315e-20
8.96681099e-18
2.6399879e-58
3.20160385e-58
5.57235501e-58
4.24482853e-58
4.06959022e-58
4.2101597e-58
4.03848303e-58
5.35869655e-58
4.51450212e-58
4.59340883e-58
4.44741067e-58
5.93176554e-58
5.53788587e-58
6.29701783e-58
6.85126013e-58
4.56510276e-58
4.48595239e-58
6.18197394e-58
3.71122073e-58
2.49853061e-58
4.68786294e-58
3.21164003e-58
2.7909336e-58
3.82869522e-58
6.27287678e-58
3.47585573e-56
1.54265135e-53
8.53174527e-51
5.57947906e-48
4.12752663e-45
3.27043777e-42
2.69959686e-39
2.25463309e-36
1.89136804e-33
1.56144906e-30
1.26785827e-27
9.88948349e-25
7.41001782e-22
5.05419685e-19
3.12379884e-16
1.83928713e-58
3.4933397e-58
4.2840941e-58
6.40596668e-58
3.87900995e-58
3.55571993e-58
4.27248851e-58
2.49089353e-58
2.2435984e-58
8.15807378e-58
4.703061e-58
7.70413497e-58
3.15894777e-58
1.43187921e-58
6.99526564e-59
6.9489949e-58
1.89229222e-58
1.68885673e-58
2.05243002e-58
1.35361041e-58
1.31958693e-58
8.13215131e-58
6.90508708e-58
9.66539091e-58
3.79702652e-58
1.81801946e-56
1.88409388e-53
2.05733421e-50
2.25751217e-47
2.48520491e-44
2.7122489e-41
2.93329429e-38
3.10178725e-35
3.20972708e-32
3.20486341e-29
3.09145e-26
2.83479771e-23
2.46784196e-20
1.97300076e-17
1.42050257e-14
1.27614466e-58
1.85535738e-58
3.58438215e-58
3.19043611e-58
2.70024963e-58
1.39178105e-58
9.73256269e-59
4.81065311e-58
1.49429939e-58
9.68811142e-58
6.55375641e-58
3.52457148e-58
1.34412361e-57
1.44807906e-57
1.17151375e-57
7.28161748e-58
2.39786776e-58
1.07434701e-58
5.70123038e-58
1.9327052e-58
9.06782914e-59
6.44721212e-59
1.67549949e-57
1.33504536e-57
1.12485444e-57
5.60822817e-55
5.56859202e-52
5.52744294e-49
5.48567076e-46
5.44168141e-43
5.39858224e-40
5.35410443e-37
5.31117518e-34
5.26736409e-31
5.22571307e-28
5.1842551e-25
5.14461402e-22
5.10608926e-19
5.06865903e-16
5.0643281e-13
3.55914527e-17
7.9072701e-17
1.09717699e-16
1.24708252e-16
1.26793364e-16
1.22494582e-16
1.21029802e-16
1.27640422e-16
1.40935724e-16
1.5669947e-16
1.70118782e-16
1.80090833e-16
1.89425689e-16
2.04424583e-16
2.29498452e-16
2.6534312e-16
3.09626155e-16
3.57435999e-16
4.06591281e-16
4.57086115e-16
5.17236914e-16
5.99188554e-16
7.16709541e-16
8.81624433e-16
1.10205151e-15
1.38379698e-15
1.7259807e-15
2.14508696e-15
2.65032049e-15
3.30421063e-15
4.17722521e-15
5.3819362e-15
7.06290227e-15
9.34702885e-15
1.24250351e-14
1.64093957e-14
2.15345239e-14
2.79959644e-14
3.62641233e-14
4.69521077e-14
6.10735402e-14
7.99053627e-14
1.05032959e-13
1.38175678e-13
1.81367476e-13
2.36358154e-13
3.05173545e-13
3.90582602e-13
4.96915037e-13
6.30897564e-13
8.02023851e-13
1.02270313e-12
1.30763157e-12
1.67360259e-12
2.1388125e-12
2.72403245e-12
3.45436118e-12
4.36408354e-12
5.50146296e-12
6.93349796e-12
8.74711366e-12
1.10449694e-11
1.3939676e-11
1.75464454e-11
2.19917324e-11
2.74150459e-11
3.40012354e-11
4.19768168e-11
5.16380395e-11
6.33191664e-11
7.74087885e-11
9.4335347e-11
1.14573863e-10
1.38787346e-10
1.67715299e-10
2.02620277e-10
2.44711181e-10
2.95746489e-10
3.57521122e-10
4.31937557e-10
5.20792811e-10
6.25787939e-10
7.48723165e-10
8.9155549e-10
1.05681997e-09
1.24779843e-09
1.46948235e-09
1.72804216e-09
2.03168682e-09
2.39048979e-09
2.81575152e-09
3.32014458e-09
3.91663229e-09
4.61874688e-09
5.44088787e-09
6.39919711e-09
7.5126523e-09
8.80478136e-09
1.03052437e-08
1.20524195e-08
1.40947263e-08
1.64919332e-08
1.93178628e-08
2.26658259e-08
2.6651815e-08
3.14244475e-08
3.71680353e-08
4.41060247e-08
5.25320431e-08
6.28261544e-08
7.55091853e-08
9.12829844e-08
1.11096808e-07
1.36273936e-07
1.68685143e-07
2.11018374e-07
2.67134012e-07
3.42588335e-07
4.45381355e-07
5.86875727e-07
7.82448977e-07
1.05119445e-06
1.41301806e-06
1.88121732e-06
2.450714e-06
3.08921394e-06
3.73978853e-06
4.33642962e-06
4.82366324e-06
5.16900753e-06
5.36435367e-06
5.4198719e-06
5.35709036e-06
5.20144799e-06
4.97631874e-06
4.70197383e-06
4.3922767e-06
4.05545761e-06
3.69273209e-06
3.29654165e-06
2.87966655e-06
2.42770206e-06
1.92436438e-06
1.40544677e-06
9.72999896e-07
6.69317974e-07
4.65647709e-07
3.27358622e-07
2.32122061e-07
1.66255777e-07
1.203468e-07
8.72763625e-08
6.3208582e-08
4.58822059e-08
3.34212581e-08
2.44460297e-08
1.79453117e-08
1.32016402e-08
9.73938778e-09
7.20799472e-09
5.35026558e-09
3.98391014e-09
2.97646646e-09
2.2315865e-09
1.67871568e-09
1.26568746e-09
9.55542874e-10
7.22156122e-10
5.4620585e-10
4.13364637e-10
3.12987223e-10
2.37106667e-10
1.79752154e-10
1.36480995e-10
1.03787842e-10
7.90369413e-11
6.02820559e-11
4.60528484e-11
3.52408159e-11
2.70123559e-11
2.07400981e-11
1.59512332e-11
1.22889656e-11
9.48379121e-12
7.33182185e-12
5.67835945e-12
4.40580999e-12
3.42488277e-12
2.66782573e-12
2.08296124e-12
1.63038545e-12
1.28018003e-12
1.00897345e-12
7.98947892e-13
6.35964487e-13
5.09038108e-13
4.0989554e-13
3.32595819e-13
2.72538956e-13
2.25761527e-13
1.89360638e-13
1.6098913e-13
1.39165184e-13
1.22449755e-13
1.09701804e-13
1.00020696e-13
9.27135273e-14
8.7283956e-14
8.32066798e-14
8.01079956e-14
7.76759971e-14
7.57342778e-14
7.40903565e-14
7.26360208e-14
7.12451837e-14
6.98371076e-14
6.83617296e-14
6.67282218e-14
6.50148303e-14
6.32679517e-14
6.13938582e-14
5.94195465e-14
5.73635197e-14
5.52321145e-14
5.30329771e-14
5.07801051e-14
4.84897919e-14
4.6178518e-14
4.38635586e-14
4.15659642e-14
3.93084889e-14
3.71115707e-14
3.4991304e-14
3.29583311e-14
3.10178192e-14
2.91712418e-14
2.74201793e-14
2.5760744e-14
2.41602319e-14
2.2632901e-14
2.11785504e-14
1.97933358e-14
1.84740351e-14
1.72186967e-14
1.60260561e-14
1.48949796e-14
1.38241975e-14
1.28122791e-14
1.18577619e-14
1.09593599e-14
1.01161872e-14
9.3279176e-15
8.5947786e-15
7.91728597e-15
7.29557992e-15
6.7271052e-15
6.21515785e-15
5.75303348e-15
5.33625052e-15
4.95999494e-15
4.6193535e-15
4.30965112e-15
4.02666203e-15
3.76674688e-15
3.52698869e-15
3.30542166e-15
3.10157108e-15
2.91776117e-15
2.76234062e-15
2.65740897e-15
1.02822427e-15
1.70437637e-15
1.81697064e-15
1.65545871e-15
1.39905192e-15
1.22215803e-15
1.30628446e-15
1.61880787e-15
1.98648766e-15
2.27495506e-15
2.42119538e-15
2.48804584e-15
2.63642271e-15
3.02762345e-15
3.68558716e-15
4.51583603e-15
5.39057418e-15
6.1938741e-15
6.92217254e-15
7.68569829e-15
8.78094977e-15
1.0506361e-14
1.30530081e-14
1.65012931e-14
2.07434543e-14
2.57454688e-14
3.13347357e-14
3.76927788e-14
4.51957153e-14
5.49133419e-14
6.80940122e-14
8.61712058e-14
1.10262422e-13
1.41031999e-13
1.78729687e-13
2.23000851e-13
2.74044498e-13
3.32900399e-13
4.03313565e-13
4.90507495e-13
6.01693903e-13
7.43220136e-13
9.20770636e-13
1.13693016e-12
1.39311124e-12
1.68746527e-12
2.02120203e-12
2.40340467e-12
2.85427022e-12
3.40431588e-12
4.08954816e-12
4.94566986e-12
6.00264032e-12
7.28338513e-12
8.80548999e-12
1.05908489e-11
1.26793848e-11
1.5146369e-11
1.81096166e-11
2.17262221e-11
2.61735752e-11
3.16223643e-11
3.8215336e-11
4.60745509e-11
5.53346698e-11
6.6167325e-11
7.88393504e-11
9.36786922e-11
1.11088172e-10
1.31476774e-10
1.55287065e-10
1.83000048e-10
2.15201152e-10
2.52812878e-10
2.96959301e-10
3.49495254e-10
4.12141222e-10
4.87186765e-10
5.76716408e-10
6.82752668e-10
8.06942909e-10
9.50806139e-10
1.11603768e-09
1.30465092e-09
1.51958254e-09
1.76500163e-09
2.04727725e-09
2.37433627e-09
2.75634895e-09
3.20551154e-09
3.73471598e-09
4.35774987e-09
5.08855155e-09
5.94130314e-09
6.93117267e-09
8.07551347e-09
9.39522147e-09
1.09166855e-08
1.2673517e-08
1.47094928e-08
1.70791663e-08
1.98495878e-08
2.31034409e-08
2.69450486e-08
3.15042877e-08
3.69470962e-08
4.34757975e-08
5.13349887e-08
6.08463138e-08
7.2426916e-08
8.6647207e-08
1.04271841e-07
1.26331828e-07
1.54252422e-07
1.90039424e-07
2.36562297e-07
2.97898686e-07
3.79853706e-07
4.90691536e-07
6.41995235e-07
8.49119224e-07
1.1306247e-06
1.50505295e-06
1.98338012e-06
2.55767842e-06
3.19362976e-06
3.83432937e-06
4.41572109e-06
4.88521661e-06
5.21293803e-06
5.39247557e-06
5.43463057e-06
5.36113799e-06
5.19716344e-06
4.9652739e-06
4.68532473e-06
4.37030693e-06
4.02792239e-06
3.65875956e-06
3.259959e-06
2.83996164e-06
2.38383887e-06
1.87756431e-06
1.36681357e-06
9.48440123e-07
6.55082408e-07
4.57199102e-07
3.22142347e-07
2.2880863e-07
1.64183973e-07
1.18929066e-07
8.61947024e-08
6.24525855e-08
4.53604224e-08
3.30651767e-08
2.41999038e-08
1.77762035e-08
1.30843552e-08
9.65745146e-09
7.150617e-09
5.31001314e-09
3.9554726e-09
2.95624641e-09
2.21714138e-09
1.66842253e-09
1.25843143e-09
9.50399444e-10
7.18482225e-10
5.43561794e-10
4.11448611e-10
3.11590896e-10
2.36084658e-10
1.7900064e-10
1.35926605e-10
1.03378433e-10
7.8732853e-11
6.00567329e-11
4.58858505e-11
3.51168859e-11
2.69202499e-11
2.06715462e-11
1.5900134e-11
1.22507996e-11
9.45522604e-12
7.31042431e-12
5.66233441e-12
4.3937882e-12
3.41582569e-12
2.66100058e-12
2.07786763e-12
1.62656448e-12
1.27737137e-12
1.00686478e-12
7.97392272e-13
6.34867545e-13
5.08276621e-13
4.09352575e-13
3.32206478e-13
2.72307381e-13
2.25663698e-13
1.89354395e-13
1.61029638e-13
1.39239731e-13
1.22567848e-13
1.09852459e-13
1.00186349e-13
9.28796922e-14
8.74513953e-14
8.33759532e-14
8.02741952e-14
7.78352749e-14
7.58843175e-14
7.42325852e-14
7.27700252e-14
7.13698581e-14
6.99519843e-14
6.84671779e-14
6.68219109e-14
6.50998083e-14
6.3347964e-14
6.14633149e-14
5.94792202e-14
5.74146624e-14
5.52758055e-14
5.30696734e-14
5.08102177e-14
4.85141704e-14
4.61981735e-14
4.38791542e-14
4.15778237e-14
3.93169048e-14
3.71168233e-14
3.49935758e-14
3.29577427e-14
3.10145427e-14
2.91655496e-14
2.74124924e-14
2.57528237e-14
2.41500218e-14
2.26215365e-14
2.11666834e-14
1.97812716e-14
1.84619891e-14
1.72068541e-14
1.60145713e-14
1.48839708e-14
1.38137476e-14
1.28024413e-14
1.18485677e-14
1.09508243e-14
1.01083125e-14
9.32069477e-15
8.58818726e-15
7.91129437e-15
7.29014374e-15
6.72205568e-15
6.21074172e-15
5.7489975e-15
5.33256684e-15
4.95663102e-15
4.61627611e-15
4.30682956e-15
4.02406849e-15
3.76435605e-15
3.52477793e-15
3.30337177e-15
3.0996653e-15
2.91598343e-15
2.76067118e-15
2.65581006e-15
5.91230366e-14
7.03698808e-14
5.5792111e-14
4.00010135e-14
2.82801117e-14
2.74500924e-14
4.40278438e-14
6.53799388e-14
7.93300074e-14
8.32075996e-14
7.98024814e-14
7.65062016e-14
8.35476308e-14
1.0393072e-13
1.3145155e-13
1.57526064e-13
1.76623355e-13
1.87625569e-13
1.93518592e-13
2.0344759e-13
2.28459479e-13
2.7358808e-13
3.3603465e-13
4.08831947e-13
4.84404686e-13
5.57836572e-13
6.26000644e-13
6.94411096e-13
7.77936465e-13
8.99062656e-13
1.07628298e-12
1.31852121e-12
1.62177354e-12
1.97290986e-12
2.35298439e-12
2.74430524e-12
3.14619186e-12
3.58685602e-12
4.1238603e-12
4.81769934e-12
5.71712323e-12
6.83517546e-12
8.15977192e-12
9.64611438e-12
1.12419263e-11
1.28960354e-11
1.46258581e-11
1.65420016e-11
1.88247363e-11
2.16645377e-11
2.52009355e-11
2.94896833e-11
3.45031796e-11
4.01628745e-11
4.63903584e-11
5.31857897e-11
6.07071773e-11
6.93053208e-11
7.9466058e-11
9.16983265e-11
1.0640103e-10
1.23756025e-10
1.43736898e-10
1.66303263e-10
1.91545872e-10
2.19789376e-10
2.51635259e-10
2.87714669e-10
3.28642048e-10
3.74872365e-10
4.26840769e-10
4.85122355e-10
5.50727748e-10
6.25561881e-10
7.12113987e-10
8.13985181e-10
9.34206626e-10
1.07607403e-09
1.24187444e-09
1.43330134e-09
1.65118806e-09
1.89631753e-09
2.17003636e-09
2.47474567e-09
2.81481619e-09
3.19722275e-09
3.63215851e-09
4.1324745e-09
4.71322684e-09
5.3909461e-09
6.18201556e-09
7.10243678e-09
8.16752748e-09
9.39244399e-09
1.07939852e-08
1.23924973e-08
1.42137637e-08
1.62913843e-08
1.86688644e-08
2.14031497e-08
2.45633069e-08
2.82337845e-08
3.25183108e-08
3.75472974e-08
4.34844153e-08
5.05357344e-08
5.89445538e-08
6.90048802e-08
8.11020807e-08
9.57403959e-08
1.13606991e-07
1.35614623e-07
1.62974437e-07
1.97341856e-07
2.41026944e-07
2.97303964e-07
3.70714287e-07
4.67573468e-07
5.96656097e-07
7.69908272e-07
1.00240716e-06
1.31125204e-06
1.7117318e-06
2.20972104e-06
2.79142744e-06
3.4188506e-06
4.03585319e-06
4.58287928e-06
5.01345098e-06
5.30306009e-06
5.44866745e-06
5.46216572e-06
5.36574174e-06
5.18391992e-06
4.93733962e-06
4.64514524e-06
4.31825332e-06
3.96334497e-06
3.57937195e-06
3.17669136e-06
2.75063592e-06
2.28278488e-06
1.77586284e-06
1.28615653e-06
8.97626547e-07
6.25430253e-07
4.39393801e-07
3.11060721e-07
2.21729378e-07
1.59763586e-07
1.1579196e-07
8.38641387e-08
6.08494016e-08
4.42624937e-08
3.2313578e-08
2.36778935e-08
1.74144276e-08
1.28327698e-08
9.48128595e-09
7.02681158e-09
5.22300584e-09
3.89390963e-09
2.91241578e-09
2.18579314e-09
1.64603393e-09
1.24261255e-09
9.39184068e-10
7.10467782e-10
5.37790676e-10
4.07264834e-10
3.08540864e-10
2.33851697e-10
1.77359368e-10
1.34715423e-10
1.02483983e-10
7.80679315e-11
5.95642048e-11
4.55207865e-11
3.4845941e-11
2.67188559e-11
2.05216154e-11
1.57883403e-11
1.21673082e-11
9.39276729e-12
7.26362916e-12
5.62723796e-12
4.36744634e-12
3.39604042e-12
2.64613587e-12
2.06672683e-12
1.61835639e-12
1.27120846e-12
1.00232072e-12
7.94045888e-13
6.32440624e-13
5.06550439e-13
4.08168484e-13
3.31418117e-13
2.7182888e-13
2.25425161e-13
1.89310483e-13
1.61129883e-13
1.39434733e-13
1.22835294e-13
1.10171277e-13
1.00539726e-13
9.3250388e-14
8.78272951e-14
8.37474428e-14
8.06342014e-14
7.81815443e-14
7.62144313e-14
7.45449938e-14
7.30620927e-14
7.16400052e-14
7.0201218e-14
6.86977857e-14
6.70463847e-14
6.53079079e-14
6.35191461e-14
6.16133089e-14
5.96092386e-14
5.75256655e-14
5.53694976e-14
5.3147906e-14
5.08747243e-14
4.85665458e-14
4.62399706e-14
4.39118247e-14
4.16024481e-14
3.93342123e-14
3.71273036e-14
3.49975731e-14
3.29555774e-14
3.10066403e-14
2.91524963e-14
2.73952246e-14
2.57351971e-14
2.4127288e-14
2.25964052e-14
2.11405255e-14
1.97547181e-14
1.84354979e-14
1.71808261e-14
1.59893412e-14
1.48597941e-14
1.3790803e-14
1.27808441e-14
1.18283845e-14
1.09320859e-14
1.00910217e-14
9.30483019e-15
8.57370338e-15
7.8981218e-15
7.27818506e-15
6.71162319e-15
6.20105252e-15
5.74011909e-15
5.32446581e-15
4.94923582e-15
4.60951352e-15
4.30063129e-15
4.01837244e-15
3.75910652e-15
3.51992567e-15
3.29887396e-15
3.09548434e-15
2.9120835e-15
2.75700897e-15
2.65230658e-15
4.93696215e-12
4.00523149e-12
2.46143884e-12
1.45953884e-12
9.4293552e-13
1.35904008e-12
2.88580297e-12
3.88714937e-12
3.91741844e-12
3.37570136e-12
2.70463533e-12
2.34651029e-12
2.69901237e-12
3.47883587e-12
4.14048433e-12
4.38638675e-12
4.22436e-12
3.82216344e-12
3.38513485e-12
3.27305486e-12
3.69315175e-12
4.51894014e-12
5.46851896e-12
6.30765312e-12
6.93333358e-12
7.33061528e-12
7.54271338e-12
7.79403045e-12
8.44934876e-12
9.81842849e-12
1.19661659e-11
1.47241335e-11
1.77898724e-11
2.08525233e-11
2.36545826e-11
2.60782862e-11
2.8341268e-11
3.10345916e-11
3.48355411e-11
4.01304012e-11
4.69113053e-11
5.47876504e-11
6.32356291e-11
7.16594367e-11
7.95410993e-11
8.67038238e-11
9.37983591e-11
1.02105882e-10
1.12921266e-10
1.26982478e-10
1.44255952e-10
1.64074023e-10
1.85470473e-10
2.07547847e-10
2.29816003e-10
2.52572261e-10
2.77121645e-10
3.05477688e-10
3.39625296e-10
3.80824842e-10
4.29234721e-10
4.8376742e-10
5.42888905e-10
6.05814343e-10
6.72899657e-10
7.45495499e-10
8.25379099e-10
9.1371637e-10
1.01102838e-09
1.11717698e-09
1.23216751e-09
1.3569716e-09
1.49438743e-09
1.64970406e-09
1.82939086e-09
2.04089357e-09
2.2891792e-09
2.57780531e-09
2.90741145e-09
3.27704544e-09
3.68499008e-09
4.13004756e-09
4.61311411e-09
5.1385872e-09
5.71516694e-09
6.35700301e-09
7.0830564e-09
7.91566893e-09
8.87885293e-09
9.99569098e-09
1.12862855e-08
1.27682941e-08
1.44573786e-08
1.63688873e-08
1.85222209e-08
2.09436205e-08
2.3668527e-08
2.67443868e-08
3.02334158e-08
3.42160347e-08
3.87864037e-08
4.40595199e-08
5.0175491e-08
5.73098423e-08
6.56882453e-08
7.55813643e-08
8.72992721e-08
1.01218056e-07
1.17827365e-07
1.37777834e-07
1.61963907e-07
1.91532488e-07
2.27977127e-07
2.73316531e-07
3.30333899e-07
4.02927261e-07
4.96280972e-07
6.17357026e-07
7.75479662e-07
9.82785523e-07
1.25328176e-06
1.60110021e-06
2.03606667e-06
2.55657007e-06
3.14112802e-06
3.74815654e-06
4.32437394e-06
4.81734559e-06
5.18921052e-06
5.42265012e-06
5.51887963e-06
5.49065367e-06
5.36096762e-06
5.15324359e-06
4.88468756e-06
4.57407121e-06
4.22857487e-06
3.85386816e-06
3.45949556e-06
3.04837601e-06
2.60594368e-06
2.12587155e-06
1.62738186e-06
1.1753149e-06
8.28888251e-07
5.84435982e-07
4.14275452e-07
2.95221494e-07
2.11509793e-07
1.53114546e-07
1.10940528e-07
8.05089597e-08
5.85699256e-08
4.2721781e-08
3.12530055e-08
2.29344339e-08
1.68907347e-08
1.24672461e-08
9.22428928e-09
6.84515069e-09
5.0948709e-09
3.80299372e-09
2.8475368e-09
2.13929856e-09
1.61268765e-09
1.21895579e-09
9.22411356e-10
6.98472161e-10
5.29143619e-10
4.00991478e-10
3.03964567e-10
2.30499734e-10
1.74895799e-10
1.32897409e-10
1.01134188e-10
7.70684908e-11
5.88242528e-11
4.49722333e-11
3.44387136e-11
2.64160796e-11
2.02961319e-11
1.56201597e-11
1.20416992e-11
9.29881171e-12
7.19320829e-12
5.57437084e-12
4.32776549e-12
3.36629702e-12
2.62382052e-12
2.04994644e-12
1.60584224e-12
1.2619604e-12
9.95558954e-13
7.8906455e-13
6.28759089e-13
5.03905811e-13
4.06406499e-13
3.3029948e-13
2.71138913e-13
2.25046685e-13
1.89221806e-13
1.61299943e-13
1.39764081e-13
1.23250573e-13
1.10644724e-13
1.01066012e-13
9.38183963e-14
8.84034594e-14
8.43083318e-14
8.11731466e-14
7.87007541e-14
7.67128982e-14
7.50147194e-14
7.34988084e-14
7.20424143e-14
7.05725355e-14
6.90414377e-14
6.7378169e-14
6.5613458e-14
6.37731068e-14
6.1834999e-14
5.9802191e-14
5.7689818e-14
5.55068118e-14
5.32618731e-14
5.09687945e-14
4.8642899e-14
4.63002589e-14
4.39581472e-14
4.16367708e-14
3.93577874e-14
3.71407899e-14
3.50014412e-14
3.2950369e-14
3.09930541e-14
2.91313986e-14
2.73679364e-14
2.57080936e-14
2.40919784e-14
2.25578067e-14
2.11005586e-14
1.97142445e-14
1.83951788e-14
1.7141256e-14
1.59510173e-14
1.48230939e-14
1.375599e-14
1.27480871e-14
1.17977797e-14
1.09036759e-14
1.00648076e-14
9.28077687e-15
8.55174049e-15
7.87814443e-15
7.26006588e-15
6.69575636e-15
6.186315e-15
5.7266482e-15
5.31218112e-15
4.93802449e-15
4.59926347e-15
4.29123794e-15
4.00974083e-15
3.7511523e-15
3.51257464e-15
3.29206079e-15
3.08915136e-15
2.90617609e-15
2.75146161e-15
2.64700271e-15
5.2385031e-10
2.24785563e-10
8.81889008e-11
3.88102898e-11
2.24576619e-11
6.7634231e-11
1.5966668e-10
1.69307265e-10
1.27992821e-10
8.20125535e-11
4.90263266e-11
3.98321073e-11
5.99471669e-11
8.25314189e-11
8.894476e-11
7.97664265e-11
6.34886835e-11
4.7363016e-11
3.5782861e-11
3.6857705e-11
4.97240357e-11
6.57572964e-11
7.79484798e-11
8.4186495e-11
8.54647305e-11
8.3325582e-11
7.95004764e-11
7.88928011e-11
8.68017871e-11
1.04662765e-10
1.29360229e-10
1.55956363e-10
1.80107579e-10
1.99162189e-10
2.1196817e-10
2.19413543e-10
2.26512907e-10
2.40758341e-10
2.66778775e-10
3.03896627e-10
3.47743525e-10
3.9261736e-10
4.33897175e-10
4.68254828e-10
4.93294862e-10
5.11321253e-10
5.31083229e-10
5.62521158e-10
6.11042392e-10
6.75641629e-10
7.50671366e-10
8.28882647e-10
9.04153097e-10
9.73014007e-10
1.03557978e-09
1.09672702e-09
1.16562281e-09
1.25185181e-09
1.36102587e-09
1.49288166e-09
1.64206859e-09
1.79892088e-09
1.95620628e-09
2.11307276e-09
2.27448452e-09
2.44684009e-09
2.63474262e-09
2.83876711e-09
3.05670105e-09
3.2852026e-09
3.52328881e-09
3.77494763e-09
4.05055595e-09
4.36643829e-09
4.73915634e-09
5.18236209e-09
5.70062808e-09
6.29196385e-09
6.94848318e-09
7.66074603e-09
8.42063143e-09
9.22403365e-09
1.00735679e-08
1.09810739e-08
1.19674488e-08
1.30639778e-08
1.43077218e-08
1.57378241e-08
1.73918906e-08
1.92992339e-08
2.14799166e-08
2.39491799e-08
2.67193663e-08
2.9803506e-08
3.3226081e-08
3.70254686e-08
4.12554654e-08
4.59887793e-08
5.1321175e-08
5.73687141e-08
6.42680646e-08
7.21830426e-08
8.13107636e-08
9.18986785e-08
1.04279922e-07
1.1881549e-07
1.35910166e-07
1.56060415e-07
1.79916181e-07
2.0835199e-07
2.42590642e-07
2.84104717e-07
3.34769847e-07
3.97101472e-07
4.74513751e-07
5.71731569e-07
6.94598473e-07
8.50609323e-07
1.04930398e-06
1.30233818e-06
1.62101595e-06
2.01433528e-06
2.48437989e-06
3.02072146e-06
3.59405745e-06
4.1614418e-06
4.67588934e-06
5.09430362e-06
5.3890119e-06
5.55063759e-06
5.58469241e-06
5.50360854e-06
5.33212969e-06
5.09185245e-06
4.7941301e-06
4.45916957e-06
4.0874311e-06
3.70141426e-06
3.29316519e-06
2.86270925e-06
2.40118408e-06
1.91618349e-06
1.44548944e-06
1.04807032e-06
7.49945433e-07
5.35960983e-07
3.8383564e-07
2.75715251e-07
1.98767625e-07
1.44203857e-07
1.04878655e-07
7.64167032e-08
5.57934339e-08
4.08251835e-08
2.99445176e-08
2.20210799e-08
1.62413664e-08
1.20075589e-08
8.89916384e-09
6.61395082e-09
4.9306009e-09
3.68599816e-09
2.76378025e-09
2.07911567e-09
1.56937929e-09
1.18801109e-09
9.00459336e-10
6.82750779e-10
5.17794517e-10
3.92747973e-10
2.97945476e-10
2.260879e-10
1.71651937e-10
1.30504669e-10
9.93541628e-11
7.57520723e-11
5.7849263e-11
4.42491862e-11
3.39017581e-11
2.60167042e-11
1.99985843e-11
1.53981355e-11
1.18758397e-11
9.1747469e-12
7.10019286e-12
5.50448542e-12
4.27529832e-12
3.32702423e-12
2.5943999e-12
2.02778856e-12
1.58922171e-12
1.24975547e-12
9.86701196e-13
7.82555264e-13
6.23897418e-13
5.00383048e-13
4.04101828e-13
3.28891359e-13
2.70271062e-13
2.24555695e-13
1.8909859e-13
1.61550859e-13
1.40236165e-13
1.2381839e-13
1.11274501e-13
1.01762999e-13
9.45809914e-14
8.91738659e-14
8.50508339e-14
8.18832081e-14
7.93857577e-14
7.73709795e-14
7.5631974e-14
7.40693937e-14
7.25669724e-14
7.10567059e-14
6.94883859e-14
6.77941224e-14
6.59907188e-14
6.40986976e-14
6.2120076e-14
6.00506292e-14
5.7900258e-14
5.56813812e-14
5.34057812e-14
5.10872093e-14
4.87385178e-14
4.63747009e-14
4.40140643e-14
4.16770304e-14
3.93841835e-14
3.71541703e-14
3.50024482e-14
3.29398074e-14
3.09719057e-14
2.91007716e-14
2.73292834e-14
2.56713505e-14
2.40431726e-14
2.25053428e-14
2.1046607e-14
1.96597856e-14
1.83410392e-14
1.70882045e-14
1.58996982e-14
1.4773994e-14
1.37094464e-14
1.27043142e-14
1.17568977e-14
1.08657349e-14
1.00298041e-14
9.2486607e-15
8.52241591e-15
7.85147146e-15
7.23587679e-15
6.67417611e-15
6.16658728e-15
5.70866152e-15
5.29578904e-15
4.923069e-15
4.58559289e-15
4.27871124e-15
3.99823016e-15
3.74054496e-15
3.502772e-15
3.28297536e-15
3.08070567e-15
2.89829713e-15
2.74406229e-15
2.63992885e-15
4.32979654e-08
6.58352964e-09
1.09807387e-09
2.27912152e-10
1.20450668e-10
3.13764143e-09
6.81204236e-09
5.10204723e-09
2.70231303e-09
1.22559591e-09
5.2903684e-10
5.59029155e-10
1.18972947e-09
1.50852111e-09
1.35261738e-09
9.89605567e-10
6.46945412e-10
4.05938693e-10
2.80514837e-10
3.71589543e-10
5.71632897e-10
7.2288684e-10
7.74377507e-10
7.52806688e-10
6.95266716e-10
6.24004674e-10
5.54580396e-10
5.41475788e-10
6.16552743e-10
7.58793415e-10
9.1744385e-10
1.0509137e-09
1.13901586e-09
1.17892726e-09
1.17608352e-09
1.14794943e-09
1.13908707e-09
1.19393622e-09
1.31709241e-09
1.47975351e-09
1.64530401e-09
1.78531562e-09
1.88577994e-09
1.94237608e-09
1.95090641e-09
1.93911078e-09
1.95902772e-09
2.04676026e-09
2.20314107e-09
2.40220279e-09
2.61003052e-09
2.79864452e-09
2.95310468e-09
3.0715478e-09
3.16495367e-09
3.25968548e-09
3.39070736e-09
3.58283741e-09
3.83896632e-09
4.14238376e-09
4.46638653e-09
4.77694284e-09
5.06118295e-09
5.32992225e-09
5.60558507e-09
5.90535821e-09
6.23450772e-09
6.58608305e-09
6.94881342e-09
7.31312714e-09
7.67978717e-09
8.06391365e-09
8.49464799e-09
9.00943469e-09
9.63808424e-09
1.03953143e-08
1.1274688e-08
1.22565928e-08
1.33157594e-08
1.44298485e-08
1.55838481e-08
1.67738747e-08
1.80104214e-08
1.93210776e-08
2.07476817e-08
2.23463821e-08
2.41768454e-08
2.62953707e-08
2.87499364e-08
3.15673173e-08
3.47583288e-08
3.8330021e-08
4.22876543e-08
4.663929e-08
5.14186321e-08
5.66816784e-08
6.25045309e-08
6.8990674e-08
7.62702664e-08
8.44966961e-08
9.38515384e-08
1.04547091e-07
1.16836793e-07
1.31041266e-07
1.4761595e-07
1.66994252e-07
1.89654889e-07
2.16205666e-07
2.47451754e-07
2.84482506e-07
3.28854733e-07
3.82287897e-07
4.46953866e-07
5.25764627e-07
6.22609127e-07
7.42847561e-07
8.92501364e-07
1.07904016e-06
1.31152889e-06
1.60046995e-06
1.95363051e-06
2.37507848e-06
2.86087087e-06
3.39534919e-06
3.94515789e-06
4.46922572e-06
4.92753686e-06
5.28363522e-06
5.51686462e-06
5.62289366e-06
5.60958209e-06
5.48744546e-06
5.28414116e-06
5.01908209e-06
4.69693577e-06
4.34231304e-06
3.96055916e-06
3.56446171e-06
3.1447018e-06
2.70047832e-06
2.22984797e-06
1.75419718e-06
1.31760593e-06
9.62211637e-07
6.95442435e-07
5.01344075e-07
3.61563103e-07
2.61192274e-07
1.89164115e-07
1.37636359e-07
1.00388505e-07
7.33500922e-08
5.36922304e-08
3.93782582e-08
2.89419703e-08
2.13206447e-08
1.5746442e-08
1.16561894e-08
8.64923968e-09
6.43495358e-09
4.8022362e-09
3.5941395e-09
2.69775199e-09
2.03151728e-09
1.53501725e-09
1.16331147e-09
8.82868935e-10
6.70126873e-10
5.08664373e-10
3.86105251e-10
2.93089283e-10
2.22525171e-10
1.69030604e-10
1.28573154e-10
9.79168155e-11
7.46879067e-11
5.70607265e-11
4.36641416e-11
3.3467076e-11
2.56932522e-11
1.97575128e-11
1.52181736e-11
1.17413101e-11
9.07405884e-12
7.02472362e-12
5.44782695e-12
4.23273701e-12
3.29509385e-12
2.57048096e-12
2.00986919e-12
1.57583564e-12
1.23986404e-12
9.79452112e-13
7.7726265e-13
6.2004176e-13
4.97611511e-13
4.02221291e-13
3.27698877e-13
2.69573543e-13
2.24226534e-13
1.89053599e-13
1.61748942e-13
1.40598344e-13
1.24288009e-13
1.1181558e-13
1.02349513e-13
9.51987441e-14
8.97945602e-14
8.56564554e-14
8.24663729e-14
7.99443902e-14
7.7900782e-14
7.61283435e-14
7.45290358e-14
7.29899977e-14
7.1444691e-14
6.98422812e-14
6.8118243e-14
6.62838085e-14
6.43558755e-14
6.23441106e-14
6.0243748e-14
5.80633842e-14
5.58168903e-14
5.35169829e-14
5.11771263e-14
4.88096667e-14
4.64292567e-14
4.40542163e-14
4.17046648e-14
3.9400609e-14
3.71602946e-14
3.49989865e-14
3.29274375e-14
3.09513876e-14
2.90729719e-14
2.72950077e-14
2.56407437e-14
2.40010451e-14
2.24611225e-14
2.10015003e-14
1.96144357e-14
1.82960767e-14
1.70442384e-14
1.58572401e-14
1.47334275e-14
1.36710345e-14
1.26682208e-14
1.17232121e-14
1.08344915e-14
1.00009947e-14
9.22223942e-15
8.49830032e-15
7.82954374e-15
7.21599724e-15
6.65630501e-15
6.1503412e-15
5.69387293e-15
5.28231602e-15
4.91077582e-15
4.57435333e-15
4.26840978e-15
3.98876248e-15
3.73181839e-15
3.4947055e-15
3.27549804e-15
3.07375496e-15
2.89181311e-15
2.73797316e-15
2.63410847e-15
9.76038127e-21
8.13675817e-21
5.66080342e-21
3.85326734e-21
2.60386659e-21
1.79169929e-21
1.17014704e-21
7.92707753e-22
5.72183035e-22
4.52492781e-22
3.46560648e-22
2.63503766e-22
1.94719462e-22
1.60378691e-22
1.10126286e-22
9.54349664e-23
8.9486262e-23
8.98822959e-23
7.51813098e-23
6.18083367e-23
5.71424147e-23
5.72133284e-23
4.86872825e-23
4.1071696e-23
3.33229206e-23
4.10843473e-23
3.91258659e-23
3.7483799e-23
2.89431825e-23
2.2903027e-23
2.6822219e-23
1.95983333e-23
1.84998151e-22
1.24186445e-20
8.81752483e-19
6.31729096e-17
4.59807011e-15
3.43688264e-13
2.72935123e-11
2.35829432e-09
3.21593773e-21
4.24556287e-21
3.87253367e-21
3.09702612e-21
2.38187225e-21
1.81618964e-21
1.41330273e-21
1.08785088e-21
9.25569339e-22
7.34425904e-22
5.43314905e-22
4.2940782e-22
3.49243439e-22
2.5679899e-22
1.9000866e-22
1.6271004e-22
1.40172431e-22
1.19306667e-22
1.12873492e-22
1.16123151e-22
9.96577791e-23
7.58092492e-23
5.5506817e-23
6.23148713e-23
5.6547672e-23
5.53335201e-23
4.179797e-23
4.2913231e-23
3.86496272e-23
3.92865014e-23
2.97194955e-23
2.85677929e-23
4.5112743e-23
2.03598302e-21
1.41909468e-19
9.91729357e-18
6.90749666e-16
4.77573194e-14
3.24992853e-12
2.08955805e-10
4.51816139e-22
8.05697396e-22
1.22129888e-21
1.28662934e-21
1.43447949e-21
1.42073169e-21
1.24236719e-21
1.07778186e-21
9.16379403e-22
7.75115622e-22
6.47696993e-22
5.07919203e-22
4.17473669e-22
3.60136005e-22
3.14866042e-22
2.44600465e-22
2.24142006e-22
2.16879411e-22
1.74585492e-22
1.53745718e-22
1.23975535e-22
1.18264087e-22
8.96063979e-23
6.84356712e-23
6.74267272e-23
6.21851774e-23
6.24297865e-23
4.94045411e-23
5.01495582e-23
4.73743331e-23
4.347289e-23
3.83557242e-23
3.35907231e-23
3.64870891e-22
2.31500918e-20
1.52376169e-18
9.7399717e-17
5.9561813e-15
3.36878047e-13
1.65985138e-11
8.17829599e-23
1.98434416e-22
3.34092582e-22
4.40204697e-22
6.10129071e-22
7.12747906e-22
8.31598712e-22
8.13074384e-22
7.97702714e-22
7.25264297e-22
6.6074279e-22
5.70770175e-22
4.87238958e-22
4.05281719e-22
3.71437345e-22
3.09455451e-22
2.70206003e-22
2.37812798e-22
2.04316159e-22
1.78321487e-22
1.64630389e-22
1.44797127e-22
1.21172504e-22
1.0235118e-22
9.02591184e-23
8.26225006e-23
6.97759779e-23
6.02242628e-23