/*--------------------------------*- C++ -*----------------------------------*\
  =========                 |
  \\      /  F ield         | OpenFOAM: The Open Source CFD Toolbox
   \\    /   O peration     | Website:  https://openfoam.org
    \\  /    A nd           | Version:  6
     \\/     M anipulation  |
\*---------------------------------------------------------------------------*/
FoamFile
{
    version     2.0;
    format      ascii;
    class       volScalarField;
    location    "25000";
    object      CH2(S);
}
// * * * * * * * * * * * * * * * * * * * * * * * * * * * * * * * * * * * * * //

dimensions      [0 0 0 0 0 0 0];

internalField   nonuniform List<scalar> 
44870
(
1.41602451e-59
2.09770048e-59
1.62118525e-59
1.73155087e-59
1.56691522e-59
1.84056496e-59
1.67478821e-59
1.76723072e-59
2.70701594e-59
1.6883176e-59
1.42528605e-59
1.87224941e-59
3.02009801e-59
2.85370474e-59
2.32273414e-59
2.11647645e-59
2.53462522e-59
2.4543764e-59
2.29418706e-59
2.26363654e-59
2.05067889e-59
2.54946646e-59
3.27451024e-59
2.90955069e-59
1.31975523e-57
3.68179301e-55
1.07232509e-52
3.20253533e-50
9.80219822e-48
3.06936663e-45
9.82125268e-43
3.20209047e-40
1.0610423e-37
3.55471178e-35
1.1969913e-32
4.00771394e-30
1.31450448e-27
4.11037447e-25
1.16301871e-22
2.71134594e-20
9.05765734e-60
9.74591353e-60
6.24791043e-60
1.13415654e-59
1.64060272e-59
1.90485704e-59
1.21065835e-59
2.13927328e-59
2.37707944e-59
2.72688696e-59
2.90214771e-59
2.23442186e-59
2.56457179e-59
1.88140837e-59
1.82173421e-59
2.33558938e-59
2.97937375e-59
2.80935278e-59
2.71231972e-59
2.34384273e-59
2.56936598e-59
1.78824797e-59
1.62355598e-59
2.69890845e-59
3.04732701e-58
9.68621083e-56
3.43209621e-53
1.27238382e-50
4.92520427e-48
1.9843924e-45
8.30475418e-43
3.59716243e-40
1.60812155e-37
7.37945588e-35
3.45667105e-32
1.63550745e-29
7.71115184e-27
3.54093531e-24
1.50969833e-21
5.63529586e-19
1.30478043e-59
1.44816301e-59
3.40840953e-59
2.82066657e-59
1.76823017e-59
2.68362557e-59
1.62616433e-59
1.49619615e-59
1.7615197e-59
1.65772499e-59
3.38353591e-59
2.59296757e-59
1.66026066e-59
2.71335476e-59
1.91511872e-59
1.38413406e-59
1.38818036e-59
1.38761398e-59
1.14306445e-59
2.05993793e-59
1.88511155e-59
2.246908e-59
1.36875049e-59
9.24664275e-60
2.6484072e-59
2.16103757e-57
9.70550385e-55
5.36866737e-52
3.51141398e-49
2.59782383e-46
2.05842634e-43
1.69911923e-40
1.41901386e-37
1.1903245e-34
9.8262473e-32
7.97797313e-29
6.2222121e-26
4.66148027e-23
3.17876162e-20
1.96402547e-17
1.28156101e-59
1.40987993e-59
2.43396537e-59
2.04877669e-59
1.46884588e-59
1.02443311e-59
2.37613118e-59
2.83076221e-59
2.86574649e-59
1.4109288e-59
1.61957084e-59
3.3215556e-59
2.92908153e-59
1.82980832e-59
2.58234901e-59
2.27027941e-59
2.80776262e-59
1.00979833e-59
8.78972741e-60
4.953362e-60
3.22986016e-59
5.27358109e-59
6.25237702e-59
3.54463254e-59
1.41869467e-59
1.12779247e-57
1.18648536e-54
1.29555076e-51
1.4215624e-48
1.56488368e-45
1.70777775e-42
1.84687522e-39
1.95286314e-36
2.02070846e-33
2.01751573e-30
1.9459723e-27
1.78424821e-24
1.55308909e-21
1.241433e-18
8.93503134e-16
3.23409559e-59
1.00662759e-59
4.02015022e-59
1.53282294e-59
5.10278656e-60
1.62940644e-60
4.77980824e-60
3.87333697e-59
7.98945522e-60
1.90801694e-59
3.71590114e-59
8.64574036e-60
4.22886542e-59
1.35217406e-59
5.36164493e-60
6.08643337e-59
2.74529464e-59
9.05465864e-60
5.81947744e-59
1.362198e-59
3.45548012e-60
1.65693682e-60
7.40625656e-59
1.17385222e-58
5.76505281e-59
3.53187027e-56
3.50707646e-53
3.48116139e-50
3.45485398e-47
3.42715024e-44
3.40000717e-41
3.37199589e-38
3.34495993e-35
3.31737116e-32
3.29114037e-29
3.26503123e-26
3.24006642e-23
3.2158047e-20
3.19223193e-17
3.18937474e-14
2.23281846e-18
4.94700877e-18
6.84832684e-18
7.76633086e-18
7.87797064e-18
7.60671929e-18
7.50613128e-18
7.87048364e-18
8.60376579e-18
9.457288e-18
1.01568561e-17
1.06554981e-17
1.11275894e-17
1.19292975e-17
1.32906188e-17
1.52271196e-17
1.75925916e-17
2.01095064e-17
2.26679152e-17
2.52989909e-17
2.85006042e-17
3.29593016e-17
3.94071669e-17
4.84213258e-17
6.03396674e-17
7.53641147e-17
9.33493231e-17
1.15171989e-16
1.41442741e-16
1.75788087e-16
2.2230206e-16
2.87259993e-16
3.78454274e-16
5.02415189e-16
6.68926672e-16
8.83386296e-16
1.1581531e-15
1.5041151e-15
1.94811071e-15
2.52547841e-15
3.29342457e-15
4.32260229e-15
5.69887384e-15
7.51356342e-15
9.87425478e-15
1.28744869e-14
1.66283903e-14
2.12998316e-14
2.71476569e-14
3.45672516e-14
4.41027518e-14
5.64462354e-14
7.23957355e-14
9.28401426e-14
1.1872251e-13
1.51115476e-13
1.91337536e-13
2.41238239e-13
3.03464065e-13
3.81692552e-13
4.80646319e-13
6.05823339e-13
7.63177592e-13
9.58752023e-13
1.19918725e-12
1.49185004e-12
1.84653346e-12
2.27514583e-12
2.79305505e-12
3.41722746e-12
4.16709244e-12
5.06402079e-12
6.13221122e-12
7.40684508e-12
8.92853046e-12
1.07665399e-11
1.2987323e-11
1.56843276e-11
1.89490104e-11
2.28737211e-11
2.7540843e-11
3.30255728e-11
3.94077268e-11
4.67764544e-11
5.52535332e-11
6.49994085e-11
7.6264864e-11
8.93601626e-11
1.04693338e-10
1.22755576e-10
1.4407916e-10
1.69243999e-10
1.98825113e-10
2.33432264e-10
2.7371553e-10
3.20386932e-10
3.74266955e-10
4.36406782e-10
5.08171995e-10
5.91375826e-10
6.88407865e-10
8.02407209e-10
9.37276453e-10
1.09757399e-09
1.28820831e-09
1.51516614e-09
1.78593863e-09
2.10975432e-09
2.49897083e-09
2.96960754e-09
3.54362672e-09
4.25058078e-09
5.13043735e-09
6.23905695e-09
7.65560647e-09
9.49423899e-09
1.19197567e-08
1.51709861e-08
1.95947015e-08
2.568861e-08
3.41356617e-08
4.58015107e-08
6.16225705e-08
8.22921228e-08
1.07729935e-07
1.3664309e-07
1.6657238e-07
1.94545682e-07
2.17971575e-07
2.35249929e-07
2.45878337e-07
2.50199032e-07
2.4910146e-07
2.4367996e-07
2.34950084e-07
2.23808364e-07
2.10865962e-07
1.96480316e-07
1.80661243e-07
1.62992047e-07
1.44072364e-07
1.23068308e-07
9.88509768e-08
7.28622388e-08
5.05705824e-08
3.47464182e-08
2.41417603e-08
1.69547582e-08
1.20069658e-08
8.56139146e-09
6.14547321e-09
4.44939399e-09
3.2538409e-09
2.38330158e-09
1.73960325e-09
1.27016873e-09
9.301041e-10
6.83815299e-10
5.05014152e-10
3.74746614e-10
2.79221131e-10
2.08920001e-10
1.56967644e-10
1.18400258e-10
8.96099864e-11
6.79467902e-11
5.15566138e-11
3.91349872e-11
2.97098816e-11
2.25533455e-11
1.71196099e-11
1.29953087e-11
9.86654604e-12
7.49503455e-12
5.69998384e-12
4.34072793e-12
3.31068051e-12
2.52919041e-12
1.93540149e-12
1.48352809e-12
1.13910438e-12
8.76154034e-13
6.75075153e-13
5.21062734e-13
4.02917576e-13
3.12143414e-13
2.42282582e-13
1.88432247e-13
1.46872583e-13
1.14766453e-13
8.99228647e-14
7.06957467e-14
5.5810361e-14
4.42909676e-14
3.53616658e-14
2.84196579e-14
2.30107815e-14
1.88083626e-14
1.55591053e-14
1.3044669e-14
1.11048455e-14
9.61041755e-15
8.47853478e-15
7.62891046e-15
6.99814927e-15
6.53482667e-15
6.20098088e-15
5.96620509e-15
5.80100348e-15
5.68429237e-15
5.59756716e-15
5.53131016e-15
5.47321997e-15
5.41819689e-15
5.35854525e-15
5.28984081e-15
5.20937524e-15
5.11122172e-15
5.00231291e-15
4.88674258e-15
4.75815926e-15
4.61898895e-15
4.47100852e-15
4.31504865e-15
4.15192955e-15
3.98293766e-15
3.80952433e-15
3.63316124e-15
3.45537062e-15
3.27794305e-15
3.10278804e-15
2.93162939e-15
2.76584858e-15
2.60639621e-15
2.45378427e-15
2.3082198e-15
2.16991468e-15
2.0386488e-15
1.91180682e-15
1.79066391e-15
1.6752436e-15
1.56525876e-15
1.46047121e-15
1.36074365e-15
1.26599161e-15
1.17613836e-15
1.09109359e-15
1.01075158e-15
9.3500207e-16
8.63747371e-16
7.96920607e-16
7.34498472e-16
6.76500043e-16
6.22964753e-16
5.73900837e-16
5.29115602e-16
4.88795557e-16
4.52451828e-16
4.19709954e-16
3.90176467e-16
3.63456107e-16
3.39176272e-16
3.17002325e-16
2.9664725e-16
2.77881334e-16
2.60549337e-16
2.44612214e-16
2.30248964e-16
2.18108543e-16
2.09914141e-16
6.45054493e-17
1.06496075e-16
1.13141594e-16
1.02716848e-16
8.64785906e-17
7.57852121e-17
8.07671862e-17
9.8689187e-17
1.19185929e-16
1.34664258e-16
1.41783693e-16
1.44705786e-16
1.52788755e-16
1.7470525e-16
2.11043628e-16
2.56005392e-16
3.02427933e-16
3.44180325e-16
3.81692653e-16
4.22177156e-16
4.82834279e-16
5.7981704e-16
7.22154425e-16
9.12104911e-16
1.14154835e-15
1.40732135e-15
1.69982368e-15
2.03150602e-15
2.42834667e-15
2.95508788e-15
3.68361901e-15
4.69104882e-15
6.03194457e-15
7.73254935e-15
9.7964876e-15
1.21986652e-14
1.49547948e-14
1.81389424e-14
2.19810168e-14
2.67874656e-14
3.29555164e-14
4.08112365e-14
5.06243286e-14
6.2485345e-14
7.64338738e-14
9.23707053e-14
1.10426578e-13
1.31218704e-13
1.559841e-13
1.86474335e-13
2.24643958e-13
2.72323488e-13
3.30940086e-13
4.01481548e-13
4.84653435e-13
5.81497507e-13
6.94219525e-13
8.27129916e-13
9.86924913e-13
1.18230763e-12
1.42277847e-12
1.71718668e-12
2.07275461e-12
2.49565812e-12
2.99291364e-12
3.57367561e-12
4.25210755e-12
5.04520511e-12
5.97325305e-12
7.05601636e-12
8.31462504e-12
9.77274711e-12
1.14612328e-11
1.34313378e-11
1.57472074e-11
1.85120645e-11
2.18202104e-11
2.57906167e-11
3.0524169e-11
3.61120458e-11
4.26214371e-11
5.01136384e-11
5.86608313e-11
6.83555317e-11
7.93431318e-11
9.18305013e-11
1.06142461e-10
1.22680294e-10
1.41947682e-10
1.64534583e-10
1.91035746e-10
2.22067388e-10
2.58234796e-10
3.00182598e-10
3.48597725e-10
4.04236356e-10
4.67991109e-10
5.41058084e-10
6.25009295e-10
7.21941584e-10
8.34605129e-10
9.66638923e-10
1.12248315e-09
1.30715062e-09
1.52586631e-09
1.78519041e-09
2.0933629e-09
2.46058175e-09
2.90050314e-09
3.43083108e-09
4.07573169e-09
4.86756315e-09
5.84999173e-09
7.08350524e-09
8.65341708e-09
1.06821867e-08
1.33447351e-08
1.68917747e-08
2.16832177e-08
2.8228844e-08
3.72140503e-08
4.94854865e-08
6.59236873e-08
8.71206143e-08
1.12863796e-07
1.41756571e-07
1.71324288e-07
1.98669569e-07
2.21326114e-07
2.37812985e-07
2.47709813e-07
2.5139265e-07
2.49766875e-07
2.43919134e-07
2.34829382e-07
2.23378115e-07
2.1013611e-07
1.9543628e-07
1.79252636e-07
1.61408976e-07
1.42283848e-07
1.21000042e-07
9.65201302e-08
7.08590271e-08
4.92737401e-08
3.39945358e-08
2.36977652e-08
1.66817148e-08
1.18339306e-08
8.44934136e-09
6.07227695e-09
4.40266345e-09
3.22082216e-09
2.35750083e-09
1.72068161e-09
1.25707223e-09
9.21107422e-10
6.77585268e-10
5.00645697e-10
3.71685547e-10
2.77082983e-10
2.07415918e-10
1.55901432e-10
1.17639393e-10
8.90675775e-11
6.75637716e-11
5.12838325e-11
3.89388592e-11
2.95677482e-11
2.24496635e-11
1.70436057e-11
1.2939414e-11
9.82536648e-12
7.46470614e-12
5.67753383e-12
4.32403415e-12
3.2983045e-12
2.52001693e-12
1.92859484e-12
1.47847103e-12
1.13534236e-12
8.73351475e-13
6.72983443e-13
5.19498566e-13
4.01747129e-13
3.11267988e-13
2.41626926e-13
1.87939306e-13
1.46502119e-13
1.14490995e-13
8.97173008e-14
7.05456409e-14
5.56989529e-14
4.4210056e-14
3.53060514e-14
2.83825812e-14
2.29858468e-14
1.87920343e-14
1.55515796e-14
1.30445572e-14
1.11098204e-14
9.61802647e-15
8.48808077e-15
7.64080993e-15
7.01169372e-15
6.54906187e-15
6.21516033e-15
5.98031116e-15
5.81494758e-15
5.69777056e-15
5.61041707e-15
5.5434332e-15
5.48467021e-15
5.42890599e-15
5.36845651e-15
5.29896366e-15
5.21775414e-15
5.11865724e-15
5.0090487e-15
4.89304933e-15
4.76362755e-15
4.62367738e-15
4.47500859e-15
4.31844427e-15
4.15476049e-15
3.98523965e-15
3.81136602e-15
3.63462389e-15
3.45650862e-15
3.27878389e-15
3.10335608e-15
2.93194774e-15
2.76593257e-15
2.60625618e-15
2.45343445e-15
2.30768232e-15
2.16922347e-15
2.03795257e-15
1.91092731e-15
1.78969546e-15
1.67423957e-15
1.56424389e-15
1.45946281e-15
1.35975651e-15
1.26503794e-15
1.17522741e-15
1.09023173e-15
1.00994279e-15
9.34248557e-16
8.63050003e-16
7.96279222e-16
7.33911977e-16
6.75966415e-16
6.22481028e-16
5.73463048e-16
5.28712751e-16
4.88440856e-16
4.52128462e-16
4.1941527e-16
3.89907687e-16
3.63210505e-16
3.38951363e-16
3.16795866e-16
2.96457202e-16
2.77705873e-16
2.60386908e-16
2.4446146e-16
2.30108577e-16
2.17976925e-16
2.0978831e-16
3.70907392e-15
4.385768e-15
3.45586553e-15
2.46065981e-15
1.72720895e-15
1.71677806e-15
2.71135843e-15
3.92785688e-15
4.68000749e-15
4.84565251e-15
4.60333788e-15
4.40677752e-15
4.82505695e-15
5.97984745e-15
7.48751812e-15
8.86910168e-15
9.8413882e-15
1.03703302e-14
1.06518206e-14
1.12367096e-14
1.2736735e-14
1.53753494e-14
1.89249514e-14
2.29421654e-14
2.69872422e-14
3.08084264e-14
3.42877226e-14
3.78477903e-14
4.24544246e-14
4.94155703e-14
5.96821341e-14
7.35650896e-14
9.06257719e-14
1.09959892e-13
1.30446258e-13
1.51184073e-13
1.72394516e-13
1.95985582e-13
2.25391325e-13
2.63926067e-13
3.13909223e-13
3.75501311e-13
4.4748859e-13
5.27043915e-13
6.11350566e-13
6.9821722e-13
7.89714774e-13
8.93074114e-13
1.01877514e-12
1.17691758e-12
1.37395803e-12
1.61136517e-12
1.8860524e-12
2.19244922e-12
2.52572637e-12
2.88648225e-12
3.28504011e-12
3.74259719e-12
4.28697653e-12
4.94552214e-12
5.7377578e-12
6.67095438e-12
7.74195746e-12
8.94812561e-12
1.02947843e-11
1.18001198e-11
1.34959205e-11
1.54133518e-11
1.75804674e-11
2.00151028e-11
2.27352402e-11
2.57707132e-11
2.91811271e-11
3.30803631e-11
3.76152898e-11
4.29868623e-11
4.93559613e-11
5.68807975e-11
6.565085e-11
7.57178298e-11
8.70884508e-11
9.97806579e-11
1.13847759e-10
1.29408799e-10
1.46695273e-10
1.66057624e-10
1.88029483e-10
2.13264651e-10
2.42498323e-10
2.76512801e-10
3.16025947e-10
3.61716802e-10
4.14216116e-10
4.74248315e-10
5.42577073e-10
6.20056656e-10
7.07761091e-10
8.07278341e-10
9.207054e-10
1.05083547e-09
1.20130278e-09
1.37700948e-09
1.5836505e-09
1.82718857e-09
2.11344187e-09
2.45036225e-09
2.84800098e-09
3.31889215e-09
3.87967093e-09
4.55200957e-09
5.36526273e-09
6.358454e-09
7.58344545e-09
9.11123815e-09
1.10410818e-08
1.35140663e-08
1.67269368e-08
2.09551607e-08
2.65846806e-08
3.41466731e-08
4.43218556e-08
5.79014494e-08
7.56300845e-08
9.78740269e-08
1.24144791e-07
1.52851278e-07
1.81519629e-07
2.07430149e-07
2.28384055e-07
2.43148182e-07
2.51465944e-07
2.53773339e-07
2.51010702e-07
2.4424513e-07
2.34369663e-07
2.22239484e-07
2.08328217e-07
1.92921629e-07
1.75898869e-07
1.5776351e-07
1.38224093e-07
1.16159465e-07
9.14199228e-08
6.66661154e-08
4.65880269e-08
3.24304215e-08
2.27630036e-08
1.61020197e-08
1.14645727e-08
8.20923855e-09
5.91508776e-09
4.30117017e-09
3.14772102e-09
2.30084024e-09
1.68030383e-09
1.22924228e-09
9.01967058e-10
6.64288495e-10
4.91287092e-10
3.65091847e-10
2.72467881e-10
2.04163737e-10
1.53592406e-10
1.15989261e-10
8.78880088e-11
6.67285821e-11
5.06888272e-11
3.85108415e-11
2.92573738e-11
2.22231793e-11
1.68775376e-11
1.28172621e-11
9.7353609e-12
7.39842312e-12
5.62847801e-12
4.28752844e-12
3.27125102e-12
2.49996309e-12
1.91371373e-12
1.46741372e-12
1.12711459e-12
8.672203e-13
6.68407823e-13
5.16078625e-13
3.9918758e-13
3.09350842e-13
2.40190376e-13
1.86862605e-13
1.45695432e-13
1.13888624e-13
8.92757345e-14
7.02165145e-14
5.54591339e-14
4.40362613e-14
3.51829965e-14
2.82982671e-14
2.29315971e-14
1.87598541e-14
1.55367205e-14
1.30430956e-14
1.11191725e-14
9.63536894e-15
8.51069244e-15
7.66736435e-15
7.04086964e-15
6.57981841e-15
6.24656487e-15
6.01161577e-15
5.8455143e-15
5.72713834e-15
5.63843741e-15
5.57001499e-15
5.50972721e-15
5.45225524e-15
5.38999169e-15
5.31877717e-15
5.23604815e-15
5.13640444e-15
5.02542626e-15
4.9065618e-15
4.77543831e-15
4.63388306e-15
4.48368495e-15
4.32572533e-15
4.16079421e-15
3.99016664e-15
3.81531744e-15
3.63772757e-15
3.4588833e-15
3.28051826e-15
3.10451046e-15
2.93256317e-15
2.76603833e-15
2.60587933e-15
2.45261009e-15
2.30645813e-15
2.16767548e-15
2.03640598e-15
1.90897118e-15
1.78755513e-15
1.67202739e-15
1.56201093e-15
1.45724582e-15
1.35758748e-15
1.26294336e-15
1.17322726e-15
1.08833975e-15
1.00816757e-15
9.32594743e-16
8.61519336e-16
7.94871176e-16
7.32624021e-16
6.7479404e-16
6.2141776e-16
5.72500085e-16
5.27867575e-16
4.87662277e-16
4.51417247e-16
4.18767317e-16
3.89316893e-16
3.62670864e-16
3.38457348e-16
3.16342474e-16
2.96039948e-16
2.77320784e-16
2.60030525e-16
2.44130735e-16
2.29800602e-16
2.17688193e-16
2.09512515e-16
3.09685645e-13
2.48519039e-13
1.51093051e-13
8.86361756e-14
5.68511341e-14
8.72418995e-14
1.7684005e-13
2.31040354e-13
2.28696147e-13
1.94959113e-13
1.55347554e-13
1.3645058e-13
1.58416939e-13
2.02327131e-13
2.37258412e-13
2.4812802e-13
2.36888912e-13
2.13542842e-13
1.89966544e-13
1.87027311e-13
2.14646489e-13
2.63279444e-13
3.15815126e-13
3.5900232e-13
3.88037387e-13
4.03468588e-13
4.0923288e-13
4.20327172e-13
4.58688443e-13
5.40259603e-13
6.65133196e-13
8.20311815e-13
9.86778922e-13
1.14687575e-12
1.28785269e-12
1.40638569e-12
1.51914342e-12
1.66232516e-12
1.87362078e-12
2.1703308e-12
2.54556224e-12
2.97237428e-12
3.41943008e-12
3.8545482e-12
4.25439818e-12
4.61826184e-12
4.99181184e-12
5.45072758e-12
6.06309682e-12
6.85945313e-12
7.82576946e-12
8.91599788e-12
1.00716654e-11
1.12420006e-11
1.24043474e-11
1.35854185e-11
1.4869803e-11
1.63766101e-11
1.82141865e-11
2.04405924e-11
2.30484394e-11
2.59689468e-11
2.91185731e-11
3.24601198e-11
3.6018632e-11
3.98706645e-11
4.41065571e-11
4.87752498e-11
5.38870137e-11
5.94160963e-11
6.53579467e-11
7.17796095e-11
7.88650818e-11
8.69433768e-11
9.63935783e-11
1.07617296e-10
1.20849936e-10
1.36207955e-10
1.5362967e-10
1.72983559e-10
1.94118451e-10
2.16968352e-10
2.41573749e-10
2.68186419e-10
2.97298454e-10
3.29607629e-10
3.66144938e-10
4.08033731e-10
4.56407302e-10
5.1231725e-10
5.7653724e-10
6.49751519e-10
7.32651998e-10
8.2600714e-10
9.30642386e-10
1.04754454e-09
1.17811229e-09
1.32474473e-09
1.49089932e-09
1.68040083e-09
1.89851896e-09
2.1526122e-09
2.45041167e-09
2.79907671e-09
3.20496952e-09
3.67865071e-09
4.23348361e-09
4.88605684e-09
5.65793061e-09
6.57745997e-09
7.68323316e-09
9.02491594e-09
1.06674015e-08
1.2698489e-08
1.52393416e-08
1.84600612e-08
2.25883735e-08
2.79322879e-08
3.49078723e-08
4.40632127e-08
5.60425961e-08
7.15172861e-08
9.09966362e-08
1.14507911e-07
1.41190758e-07
1.69248948e-07
1.96293875e-07
2.19898477e-07
2.38247488e-07
2.50443839e-07
2.56440396e-07
2.56724947e-07
2.52297337e-07
2.44186795e-07
2.33126312e-07
2.19967884e-07
2.05006571e-07
1.88482843e-07
1.70788443e-07
1.52082688e-07
1.31500812e-07
1.08526048e-07
8.38943558e-08
6.0877773e-08
4.29610517e-08
3.02735719e-08
2.14464448e-08
1.52743177e-08
1.09323884e-08
7.86096999e-09
5.68632485e-09
4.14606556e-09
3.034515e-09
2.21824192e-09
1.62252703e-09
1.18954469e-09
8.74580029e-10
6.45143845e-10
4.77718685e-10
3.55449117e-10
2.65688338e-10
1.99371093e-10
1.50180167e-10
1.13544571e-10
8.61316326e-11
6.54791197e-11
4.97984771e-11
3.78697529e-11
2.87919491e-11
2.18833507e-11
1.66282371e-11
1.26338246e-11
9.60016265e-12
7.29887382e-12
5.55443039e-12
4.2326493e-12
3.23060445e-12
2.46982921e-12
1.89134784e-12
1.45079069e-12
1.11474131e-12
8.57997215e-13
6.6152452e-13
5.10934516e-13
3.95336178e-13
3.06463324e-13
2.38026712e-13
1.85244326e-13
1.44484753e-13
1.1298163e-13
8.86026821e-14
6.97231816e-14
5.51027331e-14
4.37779757e-14
3.49964738e-14
2.81690833e-14
2.285131e-14
1.87153588e-14
1.55162135e-14
1.30401197e-14
1.1132281e-14
9.66271667e-15
8.54676601e-15
7.70813361e-15
7.08466173e-15
6.62598957e-15
6.29444259e-15
6.05923914e-15
5.89161428e-15
5.77126558e-15
5.68053734e-15
5.61006516e-15
5.54730903e-15
5.48717218e-15
5.42212668e-15
5.34831574e-15
5.26328241e-15
5.16257398e-15
5.0494913e-15
4.92660719e-15
4.79288903e-15
4.64901197e-15
4.49650177e-15
4.33638736e-15
4.16957409e-15
3.99733874e-15
3.82106337e-15
3.64218765e-15
3.46222912e-15
3.28290913e-15
3.10604915e-15
2.93330538e-15
2.76602442e-15
2.6051548e-15
2.45123247e-15
2.30449798e-15
2.16524043e-15
2.03403532e-15
1.90593795e-15
1.78427086e-15
1.66864957e-15
1.55860914e-15
1.45387307e-15
1.35429114e-15
1.25976276e-15
1.17019191e-15
1.08546987e-15
1.00547571e-15
9.30087558e-16
8.5919914e-16
7.92736899e-16
7.30671628e-16
6.7301659e-16
6.19805468e-16
5.71040935e-16
5.26583144e-16
4.86478943e-16
4.50338351e-16
4.17784864e-16
3.88421337e-16
3.61853025e-16
3.37708761e-16
3.15655489e-16
2.95407772e-16
2.76737433e-16
2.59490719e-16
2.43629805e-16
2.29334117e-16
2.17250845e-16
2.0909494e-16
3.28901725e-11
1.39168489e-11
5.42980654e-12
2.40420344e-12
1.42542215e-12
4.58625534e-12
9.7659345e-12
9.99474281e-12
7.43206164e-12
4.73417592e-12
2.84025214e-12
2.41587996e-12
3.6005403e-12
4.79980216e-12
5.03670955e-12
4.42666944e-12
3.47242505e-12
2.5678978e-12
1.95567677e-12
2.1018622e-12
2.88583855e-12
3.77790944e-12
4.39197875e-12
4.6333276e-12
4.59076798e-12
4.37509139e-12
4.10093542e-12
4.07707861e-12
4.59740063e-12
5.68731336e-12
7.11232484e-12
8.56736256e-12
9.81384913e-12
1.07270147e-11
1.12795984e-11
1.15631901e-11
1.19004966e-11
1.27150608e-11
1.42305373e-11
1.6343474e-11
1.87541631e-11
2.11283659e-11
2.32262496e-11
2.48960955e-11
2.60689427e-11
2.69431295e-11
2.80495917e-11
2.99231247e-11
3.27886274e-11
3.65008494e-11
4.0684415e-11
4.49214255e-11
4.8881659e-11
5.23965748e-11
5.55237089e-11
5.86026107e-11
6.21956274e-11
6.68373017e-11
7.27907195e-11
7.99588083e-11
8.79763025e-11
9.63143123e-11
1.04618768e-10
1.12884669e-10
1.21401928e-10
1.30521372e-10
1.40449204e-10
1.51155986e-10
1.62470604e-10
1.74173246e-10
1.86246684e-10
1.99003042e-10
2.13132995e-10
2.29645742e-10
2.4946226e-10
2.73242626e-10
3.01076905e-10
3.32608588e-10
3.67174659e-10
4.04155726e-10
4.43066268e-10
4.83826131e-10
5.26582414e-10
5.72070584e-10
6.21536507e-10
6.76682324e-10
7.39400387e-10
8.11548341e-10
8.94706712e-10
9.90001192e-10
1.09808687e-09
1.2194722e-09
1.35485766e-09
1.50509031e-09
1.67105715e-09
1.85400777e-09
2.05603825e-09
2.28112769e-09
2.53454092e-09
2.8215718e-09
3.15054144e-09
3.53367422e-09
3.98351777e-09
4.50614237e-09
5.10760885e-09
5.80383104e-09
6.61361858e-09
7.55972212e-09
8.67130307e-09
9.98693601e-09
1.15598022e-08
1.34547068e-08
1.57546034e-08
1.85706792e-08
2.20538244e-08
2.64131858e-08
3.19101138e-08
3.88824762e-08
4.77641502e-08
5.90930778e-08
7.34057439e-08
9.11543398e-08
1.12502744e-07
1.37065393e-07
1.63586429e-07
1.90154749e-07
2.14624046e-07
2.34965793e-07
2.49827918e-07
2.58690826e-07
2.61723503e-07
2.59408807e-07
2.52860679e-07
2.43036495e-07
2.30386549e-07
2.15856606e-07
1.99412353e-07
1.82153097e-07
1.63553244e-07
1.43627957e-07
1.2176241e-07
9.81369293e-08
7.45643875e-08
5.42126664e-08
3.88083565e-08
2.77312762e-08
1.98540581e-08
1.42563181e-08
1.02702052e-08
7.42371558e-09
5.38911754e-09
3.93404578e-09
2.88575254e-09
2.11477197e-09
1.55189113e-09
1.1410422e-09
8.40889349e-10
6.21362218e-10
4.60690278e-10
3.43249786e-10
2.57025492e-10
1.93221246e-10
1.45784761e-10
1.10384758e-10
8.38519992e-11
6.38440609e-11
4.86323007e-11
3.70287406e-11
2.81804677e-11
2.14364012e-11
1.63001108e-11
1.23922632e-11
9.42205484e-12
7.16776145e-12
5.45674616e-12
4.16035148e-12
3.17704253e-12
2.43010905e-12
1.86185766e-12
1.4288653e-12
1.09841473e-12
8.45822414e-13
6.52436478e-13
5.04142772e-13
3.90249817e-13
3.02646978e-13
2.35166485e-13
1.83108195e-13
1.42889218e-13
1.1178457e-13
8.77093819e-14
6.90727833e-14
5.4636562e-14
4.34411743e-14
3.47506725e-14
2.7997356e-14
2.27470128e-14
1.86608338e-14
1.54919061e-14
1.30371512e-14
1.11497521e-14
9.7006559e-15
8.59666154e-15
7.76322376e-15
7.14303301e-15
6.68738039e-15
6.35847942e-15
6.1226266e-15
5.95256025e-15
5.82948008e-15
5.73613452e-15
5.662858e-15
5.59661686e-15
5.53278207e-15
5.4640475e-15
5.38683931e-15
5.2986717e-15
5.19541124e-15
5.079263e-15
4.9523036e-15
4.81531172e-15
4.66846456e-15
4.51290852e-15
4.34992147e-15
4.18063826e-15
4.00634082e-15
3.82823008e-15
3.64766121e-15
3.46622605e-15
3.28566013e-15
3.10770066e-15
2.93392923e-15
2.76567557e-15
2.60390056e-15
2.44915371e-15
2.30168522e-15
2.16181186e-15
2.03083605e-15
1.90175421e-15
1.77981228e-15
1.66409387e-15
1.55403513e-15
1.44934687e-15
1.34987397e-15
1.25550552e-15
1.16613261e-15
1.08163433e-15
1.00187977e-15
9.26739446e-16
8.56101408e-16
7.89887725e-16
7.28065358e-16
6.70643822e-16
6.17653166e-16
5.6909348e-16
5.24844685e-16
4.84895941e-16
4.48898049e-16
4.16474086e-16
3.87226834e-16
3.60762385e-16
3.36710571e-16
3.14739451e-16
2.9456481e-16
2.75959591e-16
2.58770931e-16
2.42961799e-16
2.28711973e-16
2.16667507e-16
2.08537995e-16
2.79952815e-09
4.24488804e-10
7.04925986e-11
1.53796033e-11
8.99206692e-12
2.15845959e-10
4.07169902e-10
2.9347225e-10
1.52177971e-10
6.80738903e-11
2.91261651e-11
3.4284111e-11
7.01825575e-11
8.55142299e-11
7.43319084e-11
5.29995257e-11
3.38978639e-11
2.09039184e-11
1.47390856e-11
2.12419212e-11
3.29362573e-11
4.08298477e-11
4.26425866e-11
4.02678347e-11
3.61463602e-11
3.16329421e-11
2.76479271e-11
2.75247905e-11
3.27436231e-11
4.14417199e-11
5.03987856e-11
5.73376062e-11
6.13785435e-11
6.26239188e-11
6.1650378e-11
5.96562485e-11
5.93090435e-11
6.29121451e-11
7.0369919e-11
7.96583973e-11
8.85591601e-11
9.56038879e-11
1.00239563e-10
1.024255e-10
1.02273518e-10
1.01578906e-10
1.03274872e-10
1.09079101e-10
1.18590506e-10
1.30036926e-10
1.41437698e-10
1.51348765e-10
1.5906523e-10
1.64612085e-10
1.68824608e-10
1.73401207e-10
1.80381645e-10
1.91016743e-10
2.05214451e-10
2.21760354e-10
2.39038624e-10
2.55349469e-10
2.70184959e-10
2.84241839e-10
2.98746997e-10
3.1461101e-10
3.31941384e-10
3.50205911e-10
3.68714911e-10
3.86904806e-10
4.05025998e-10
4.24193274e-10
4.46284527e-10
4.73554508e-10
5.07496889e-10
5.48601133e-10
5.96109167e-10
6.48535364e-10
7.04189847e-10
7.61717072e-10
8.20308463e-10
8.79947723e-10
9.41426842e-10
1.00652034e-09
1.07773369e-09
1.15807894e-09
1.25047796e-09
1.35744602e-09
1.48071232e-09
1.62104973e-09
1.77853104e-09
1.95327201e-09
2.14603926e-09
2.35773966e-09
2.58923119e-09
2.84215861e-09
3.11959467e-09
3.42802165e-09
3.77479868e-09
4.16624992e-09
4.61374099e-09
5.13307856e-09
5.74233647e-09
6.4465115e-09
7.25106946e-09
8.17829059e-09
9.25175e-09
1.04998812e-08
1.19591485e-08
1.36779204e-08
1.57241324e-08
1.81746931e-08
2.11271564e-08
2.47118683e-08
2.91027045e-08
3.45393977e-08
4.12960008e-08
4.97148469e-08
6.02150582e-08
7.32909547e-08
8.93269672e-08
1.08554451e-07
1.30856944e-07
1.55591212e-07
1.8127999e-07
2.06063323e-07
2.28092698e-07
2.45631951e-07
2.57655914e-07
2.6388973e-07
2.64624396e-07
2.6025422e-07
2.52063363e-07
2.40911321e-07
2.26915565e-07
2.11263959e-07
1.94172412e-07
1.76255273e-07
1.56898624e-07
1.36061015e-07
1.13448559e-07
8.99814363e-08
6.79435384e-08
4.97173889e-08
3.59527408e-08
2.5920445e-08
1.86912448e-08
1.34994607e-08
9.77135492e-09
7.09104419e-09
5.16333396e-09
3.77656059e-09
2.77369535e-09
2.03751254e-09
1.49860856e-09
1.10411308e-09
8.15108837e-10
6.03190105e-10
4.47714162e-10
3.33873234e-10
2.50283375e-10
1.88409567e-10
1.4232868e-10
1.07889814e-10
8.20446446e-11
6.25386447e-11
4.76969775e-11
3.63526357e-11
2.76879628e-11
2.10758604e-11
1.60351625e-11
1.21970797e-11
9.27806077e-12
7.06183486e-12
5.37783414e-12
4.10189513e-12
3.13371974e-12
2.39796959e-12
1.83798535e-12
1.41110932e-12
1.08518831e-12
8.35955297e-13
6.45066156e-13
4.98631662e-13
3.86123753e-13
2.99553697e-13
2.32846975e-13
1.81372063e-13
1.41592653e-13
1.10817172e-13
8.69906871e-14
6.85463171e-14
5.42554864e-14
4.31678525e-14
3.45566599e-14
2.78633358e-14
2.26623672e-14
1.86144208e-14
1.54730695e-14
1.30389356e-14
1.11673649e-14
9.73158034e-15
8.63648242e-15
7.80874715e-15
7.19218831e-15
6.73853445e-15
6.41062788e-15
6.17408197e-15
6.00226892e-15
5.87703692e-15
5.78137573e-15
5.70547001e-15
5.63637828e-15
5.56950268e-15
5.49777041e-15
5.41768417e-15
5.32672959e-15
5.22104379e-15
5.10239618e-15
4.97256941e-15
4.8329142e-15
4.68357794e-15
4.52561373e-15
4.36040604e-15
4.18916406e-15
4.0131514e-15
3.83353262e-15
3.65163549e-15
3.46905043e-15
3.28748795e-15
3.10863937e-15
2.93405424e-15
2.76504697e-15
2.60257523e-15
2.44719462e-15
2.29916334e-15
2.15879188e-15
2.0281868e-15
1.89815138e-15
1.77605974e-15
1.66028914e-15
1.55022946e-15
1.44559056e-15
1.34621544e-15
1.25198513e-15
1.16278027e-15
1.07847009e-15
9.9891569e-16
9.23981512e-16
8.53551156e-16
7.87543221e-16
7.25921596e-16
6.68692783e-16
6.15883936e-16
5.67493209e-16
5.23407562e-16
4.83592818e-16
4.47713981e-16
4.15396827e-16
3.86245077e-16
3.59865811e-16
3.35889826e-16
3.13986125e-16
2.93871437e-16
2.75319633e-16
2.58178658e-16
2.42412143e-16
2.28200073e-16
2.16187543e-16
2.08079805e-16
7.06409136e-22
5.88182435e-22
4.13296385e-22
2.82433005e-22
1.91694552e-22
1.30283186e-22
8.33958158e-23
5.5455255e-23
3.81770642e-23
3.02681231e-23
2.30030948e-23
1.64577048e-23
1.22784426e-23
9.68760715e-24
6.61895597e-24
5.74151172e-24
5.5663761e-24
5.84881246e-24
4.67487722e-24
3.85459181e-24
3.36789293e-24
3.55118215e-24
3.09292428e-24
2.67876168e-24
2.03535574e-24
2.50211941e-24
2.47447753e-24
2.23707095e-24
1.73259574e-24
1.38318192e-24
1.6360897e-24
1.16440381e-24
1.19133282e-23
8.02653685e-22
5.69916411e-20
4.08314184e-18
2.97192422e-16
2.22139051e-14
1.76408138e-12
1.52426025e-10
3.03093354e-22
3.66055322e-22
3.30653791e-22
2.59196349e-22
1.91599475e-22
1.41713895e-22
1.08154734e-22
7.89057999e-23
6.61964595e-23
4.99697871e-23
3.56065989e-23
2.69545315e-23
2.11755527e-23
1.51122398e-23
1.14868963e-23
1.00816414e-23
8.63755779e-24
7.16965574e-24
6.44106294e-24
7.49759507e-24
6.65237523e-24
4.94973741e-24
3.51148341e-24
3.99479164e-24
3.47939095e-24
3.55227491e-24
2.67255546e-24
2.71934135e-24
2.39832903e-24
2.49488811e-24
1.74335806e-24
1.7503471e-24
2.87650007e-24
1.31570204e-22
9.17223101e-21
6.40997911e-19
4.46460037e-17
3.08673638e-15
2.1005401e-13
1.35054888e-11
4.22074804e-23
7.20466846e-23
8.45984094e-23
8.45576244e-23
9.55773428e-23
9.84017607e-23
8.54608278e-23
7.27457933e-23
6.10221738e-23
5.12454093e-23
4.26702247e-23
3.29124551e-23
2.69064242e-23
2.31699344e-23
2.07242953e-23
1.58165111e-23
1.42562416e-23
1.43725726e-23
1.11438522e-23
9.81082663e-24
7.81902821e-24
7.54851072e-24
5.65364519e-24
4.26871785e-24
4.20315514e-24
3.82619118e-24
3.95468997e-24
3.09850028e-24
3.13835113e-24
2.86879729e-24
2.70247779e-24
2.28134892e-24
2.05538402e-24
2.35129702e-23
1.4962494e-21
9.84873524e-20
6.29534718e-18
3.84970295e-16
2.17734928e-14
1.07280322e-12
7.48343364e-24
1.7035297e-23
2.52775649e-23
3.10659458e-23
3.72382179e-23
4.30966918e-23
4.90084154e-23
4.99458451e-23
5.06171747e-23
4.71247737e-23
4.40522688e-23
3.83191553e-23
3.28994501e-23
2.74148839e-23
2.43407301e-23
1.96554448e-23
1.66641104e-23
1.45725167e-23
1.25600794e-23
1.08685317e-23
1.00913856e-23
8.88253062e-24
7.43173766e-24
6.32628363e-24
5.66219137e-24