/*--------------------------------*- C++ -*----------------------------------*\
  =========                 |
  \\      /  F ield         | OpenFOAM: The Open Source CFD Toolbox
   \\    /   O peration     | Website:  https://openfoam.org
    \\  /    A nd           | Version:  6
     \\/     M anipulation  |
\*---------------------------------------------------------------------------*/
FoamFile
{
    version     2.0;
    format      ascii;
    class       volScalarField;
    location    "25000";
    object      CH2CHO;
}
// * * * * * * * * * * * * * * * * * * * * * * * * * * * * * * * * * * * * * //

dimensions      [0 0 0 0 0 0 0];

internalField   nonuniform List<scalar> 
44870
(
3.78590533e-95
1.77015307e-94
3.83540653e-94
4.68246413e-94
5.0505591e-94
8.98426156e-94
6.92490011e-94
7.11717208e-94
1.68155095e-93
1.68023678e-91
3.28214587e-89
6.55981258e-87
1.33736711e-84
2.78475375e-82
5.9307718e-80
1.29309206e-77
2.88960186e-75
6.62191101e-73
1.55753754e-70
3.76094511e-68
9.32866043e-66
2.37656363e-63
6.221015e-61
1.67244121e-58
4.61851294e-56
1.30904885e-53
3.80769711e-51
1.13520258e-48
3.46687141e-46
1.08248695e-43
3.45093348e-41
1.11974402e-38
3.68725818e-36
1.22532697e-33
4.08305398e-31
1.34891493e-28
4.35056376e-26
1.33249603e-23
3.67308085e-21
8.29238695e-19
3.16257019e-95
1.12412203e-94
2.56674428e-94
4.33324868e-94
7.32023378e-94
1.23356478e-93
1.62322087e-93
1.09115251e-93
1.45261061e-93
2.96499052e-92
5.22225842e-90
9.83943351e-88
1.90498821e-85
3.79992104e-83
7.82881914e-81
1.67072287e-78
3.70330471e-76
8.54970183e-74
2.06169221e-71
5.20513874e-69
1.3791863e-66
3.84026658e-64
1.12507091e-61
3.46678188e-59
1.12319225e-56
3.81869692e-54
1.36029055e-51
5.062112e-49
1.96374604e-46
7.91413495e-44
3.30489533e-41
1.42398155e-38
6.30685521e-36
2.85325862e-33
1.30969842e-30
6.03466571e-28
2.75221836e-25
1.21651011e-22
4.96113491e-20
1.77480706e-17
1.19837549e-94
4.57401939e-94
5.83160162e-94
8.56332827e-94
6.29132613e-94
1.1852312e-93
1.3972103e-93
1.71124981e-93
1.4560962e-93
2.64771314e-93
2.17856593e-91
3.71244282e-89
6.55992995e-87
1.20356051e-84
2.28661108e-82
4.53894703e-80
9.38357877e-78
2.03861595e-75
4.64686831e-73
1.12335073e-70
2.88853889e-68
8.05529002e-66
2.47802945e-63
8.72040494e-61
3.59011931e-58
1.75006593e-55
9.81451624e-53
6.12812346e-50
4.08591163e-47
2.85504682e-44
2.0397448e-41
1.48564853e-38
1.08237275e-35
7.91346704e-33
5.69081943e-30
4.04931823e-27
2.77933346e-24
1.85368294e-21
1.13176788e-18
6.41484689e-16
2.31827368e-94
4.25604698e-94
3.28996185e-94
4.81384043e-94
1.52347567e-93
1.28113655e-93
1.52248661e-93
1.67930366e-93
3.09327963e-93
2.62742727e-93
5.85701807e-93
3.65085994e-91
5.83477844e-89
9.87238004e-87
1.75521737e-84
3.40622433e-82
7.6905967e-80
2.36072596e-77
1.07991751e-74
6.64393047e-72
4.6868345e-69
3.4812107e-66
2.6420215e-63
2.02974974e-60
1.57208296e-57
1.22965068e-54
9.68091849e-52
7.70457157e-49
6.16376898e-46
4.98647139e-43
4.03935286e-40
3.29643286e-37
2.67183887e-34
2.16199742e-31
1.7156518e-28
1.33956289e-25
1.00765867e-22
7.30915834e-20
4.90728035e-17
3.02740108e-14
8.54181252e-94
1.49322058e-93
1.14784751e-93
4.15700428e-94
1.22137198e-93
5.55760655e-94
8.97120922e-94
3.62598312e-94
3.53310083e-93
6.95101346e-93
2.17707896e-93
9.80085158e-93
2.1197623e-90
1.44390134e-87
1.11720795e-84
8.82492953e-82
6.95228821e-79
5.44063399e-76
4.22968565e-73
3.26939241e-70
2.51495352e-67
1.9269394e-64
1.47164899e-61
1.12104759e-58
8.52225736e-56
6.4687901e-53
4.90418231e-50
3.71399469e-47
2.81052272e-44
2.12507184e-41
1.60553332e-38
1.21178433e-35
9.13393599e-33
6.87138264e-30
5.15576199e-27
3.85368444e-24
2.86465911e-21
2.11286448e-18
1.54073759e-15
1.11161905e-12
5.96004593e-17
1.70028871e-16
2.92772977e-16
4.17567279e-16
5.46609375e-16
6.86004787e-16
8.42554629e-16
1.02660293e-15
1.24588434e-15
1.51849754e-15
1.86253945e-15
2.31334661e-15
2.89394906e-15
3.64367821e-15
4.58571091e-15
5.7494753e-15
7.19094496e-15
8.96716665e-15
1.12182424e-14
1.40545743e-14
1.76644345e-14
2.2213195e-14
2.79137341e-14
3.50577191e-14
4.40536055e-14
5.55157912e-14
7.0093823e-14
8.9187051e-14
1.13676477e-13
1.45833682e-13
1.87363709e-13
2.40951101e-13
3.10351341e-13
3.99165388e-13
5.14862117e-13
6.6395884e-13
8.59462971e-13
1.1131443e-12
1.44473801e-12
1.87429741e-12
2.43172759e-12
3.15336805e-12
4.08879683e-12
5.30148992e-12
6.88372812e-12
8.94298357e-12
1.16206028e-11
1.50946562e-11
1.95879353e-11
2.5382198e-11
3.28325275e-11
4.24007291e-11
5.46804091e-11
7.04563022e-11
9.07354221e-11
1.1682263e-10
1.50345778e-10
1.93333065e-10
2.48252133e-10
3.18109397e-10
4.06564152e-10
5.18069145e-10
6.58149552e-10
8.33585977e-10
1.05309188e-09
1.32749994e-09
1.6711931e-09
2.10242136e-09
2.645389e-09
3.33027673e-09
4.19498146e-09
5.28440958e-09
6.6484825e-09
8.34162078e-09
1.04106823e-08
1.28996698e-08
1.58195591e-08
1.91620168e-08
2.28780982e-08
2.68792484e-08
3.10349346e-08
3.51761853e-08
3.91029258e-08
4.25934449e-08
4.54235696e-08
4.73941355e-08
4.83683253e-08
4.83068452e-08
4.72887626e-08
4.5503502e-08
4.32118846e-08
4.06918337e-08
3.81887371e-08
3.58873056e-08
3.39067001e-08
3.23106785e-08
3.11240957e-08
3.03490838e-08
2.99777907e-08
3.00013741e-08
3.04144769e-08
3.12187767e-08
3.24242036e-08
3.40516867e-08
3.61332402e-08
3.8716551e-08
4.18680781e-08
4.5675375e-08
5.02564125e-08
5.57611236e-08
6.23812339e-08
7.03581805e-08
7.99947967e-08
9.16686686e-08
1.05835221e-07
1.23019484e-07
1.43781103e-07
1.68615743e-07
1.97738009e-07
2.30681916e-07
2.65691994e-07
2.99054328e-07
3.24910816e-07
3.36454399e-07
3.28840864e-07
3.0221382e-07
2.62035179e-07
2.16216309e-07
1.71645829e-07
1.32475618e-07
1.00269773e-07
7.49272445e-08
5.55763114e-08
4.11319641e-08
3.05100451e-08
2.28068497e-08
1.73934757e-08
1.34296784e-08
9.917482e-09
7.15257858e-09
5.21266318e-09
3.81533554e-09
2.78147057e-09
2.00315713e-09
1.42995852e-09
1.02177521e-09
7.33546649e-10
5.28898141e-10
3.8273542e-10
2.77850136e-10
2.0228693e-10
1.47660745e-10
1.08048773e-10
7.92438722e-11
5.82435292e-11
4.28966097e-11
3.16565354e-11
2.34069588e-11
1.73399107e-11
1.28693123e-11
9.5689236e-12
7.12801814e-12
5.31958017e-12
3.97740828e-12
2.9795849e-12
2.2365093e-12
1.68221292e-12
1.26804249e-12
9.58054988e-13
7.25653882e-13
5.51127202e-13
4.19842874e-13
3.20924481e-13
2.46278536e-13
1.8984545e-13
1.47086209e-13
1.14643876e-13
8.99929542e-14
7.12333901e-14
5.69366212e-14
4.6027165e-14
3.76940306e-14
3.13248295e-14
2.64567422e-14
2.27395142e-14
1.99074024e-14
1.77586035e-14
1.61403722e-14
1.49372575e-14
1.40618403e-14
1.34463844e-14
1.30484852e-14
1.28309213e-14
1.27743138e-14
1.28684707e-14
1.30820339e-14
1.33935173e-14
1.37859196e-14
1.42477163e-14
1.47701125e-14
1.53542979e-14
1.59986441e-14
1.6712655e-14
1.74857011e-14
1.83375924e-14
1.92663823e-14
2.02914141e-14
2.14107672e-14
2.25867553e-14
2.38429597e-14
2.51560049e-14
2.65266948e-14
2.79271506e-14
2.9353139e-14
3.08049764e-14
3.22754129e-14
3.37403915e-14
3.51007402e-14
3.65299782e-14
3.80988698e-14
3.96986471e-14
4.13483958e-14
4.30399849e-14
4.47603868e-14
4.64757823e-14
4.81516073e-14
4.97541944e-14
5.12618696e-14
5.26818017e-14
5.40450284e-14
5.53957482e-14
5.6781214e-14
5.82404658e-14
5.97936609e-14
6.14393422e-14
6.31630054e-14
6.49582825e-14
6.6802582e-14
6.84536188e-14
6.9935724e-14
7.12303293e-14
7.22949745e-14
7.30926056e-14
7.35994269e-14
7.38036089e-14
7.37025984e-14
7.33012921e-14
7.2610936e-14
7.16487072e-14
7.0437644e-14
6.90068495e-14
6.73917221e-14
6.56336959e-14
6.37789197e-14
6.1876187e-14
5.99747987e-14
5.80276568e-14
5.61041619e-14
5.42013667e-14
5.23127362e-14
5.04318886e-14
4.8554147e-14
4.66776096e-14
4.48036301e-14
4.29375632e-14
4.10909643e-14
3.92876548e-14
3.75785443e-14
3.60768064e-14
3.50379482e-14
1.71730503e-15
4.03637661e-15
5.80902264e-15
7.3544862e-15
9.01634763e-15
1.09900688e-14
1.33962918e-14
1.64461987e-14
2.02644143e-14
2.5268577e-14
3.18909194e-14
4.08789125e-14
5.25500424e-14
6.73664559e-14
8.55398998e-14
1.07543458e-13
1.34513194e-13
1.67724957e-13
2.09963212e-13
2.62923116e-13
3.2917477e-13
4.10446525e-13
5.08811096e-13
6.28925727e-13
7.74860698e-13
9.57809915e-13
1.18663287e-12
1.478714e-12
1.84540984e-12
2.30651128e-12
2.87602602e-12
3.57679487e-12
4.43522199e-12
5.48791573e-12
6.7894918e-12
8.40096352e-12
1.04094736e-11
1.28929144e-11
1.59603906e-11
1.97045453e-11
2.4271905e-11
2.98113659e-11
3.65501503e-11
4.47425371e-11
5.47652448e-11
6.70075993e-11
8.19408833e-11
1.00095228e-10
1.22065379e-10
1.48543399e-10
1.80357698e-10
2.18552692e-10
2.64437218e-10
3.19675628e-10
3.86297902e-10
4.66765271e-10
5.63926211e-10
6.81091146e-10
8.22039501e-10
9.91195614e-10
1.19376315e-09
1.43601532e-09
1.72555915e-09
2.07170254e-09
2.48602576e-09
2.98241401e-09
3.57882304e-09
4.2969419e-09
5.16406184e-09
6.21201323e-09
7.47792614e-09
9.00172348e-09
1.08227481e-08
1.29778029e-08
1.54893271e-08
1.83705449e-08
2.15985937e-08
2.51330431e-08
2.88976428e-08
3.27849462e-08
3.66553244e-08
4.03429405e-08
4.36630002e-08
4.64233192e-08
4.84448759e-08
4.95890483e-08
4.97879645e-08
4.90691798e-08
4.75599179e-08
4.54680189e-08
4.30416813e-08
4.05235355e-08
3.81152351e-08
3.59617808e-08
3.41525275e-08
3.27325255e-08
3.17170214e-08
3.11047545e-08
3.08882188e-08
3.10609104e-08
3.16203712e-08
3.25714821e-08
3.39274848e-08
3.57125372e-08
3.79615233e-08
4.07253861e-08
4.40738691e-08
4.80983737e-08
5.29209481e-08
5.86952551e-08
6.56151417e-08
7.39237264e-08
8.39248701e-08
9.59923485e-08
1.10569977e-07
1.28158172e-07
1.49271976e-07
1.74331775e-07
2.03434458e-07
2.35951406e-07
2.69946176e-07
3.01586069e-07
3.25095072e-07
3.34064971e-07
3.24289258e-07
2.96446644e-07
2.56113745e-07
2.10915383e-07
1.67322472e-07
1.29164667e-07
9.7837386e-08
7.31874884e-08
5.43580432e-08
4.0302866e-08
2.99602699e-08
2.24566945e-08
1.71756009e-08
1.31813175e-08
9.6799446e-09
7.01248108e-09
5.12285168e-09
3.75319906e-09
2.73582078e-09
1.97044665e-09
1.40828431e-09
1.00779094e-09
7.24382201e-10
5.22779603e-10
3.78596109e-10
2.75022298e-10
2.00340143e-10
1.46312011e-10
1.07109346e-10
7.8586485e-11
5.77816026e-11
4.25708401e-11
3.14260613e-11
2.32434136e-11
1.72235342e-11
1.27862918e-11
9.50956319e-12
7.0854872e-12
5.28905097e-12
3.95545858e-12
2.96378214e-12
2.22511998e-12
1.67399874e-12
1.2621169e-12
9.53782002e-13
7.22576297e-13
5.48915744e-13
4.18259964e-13
3.19798511e-13
2.45486096e-13
1.89295441e-13
1.46711011e-13
1.14397408e-13
8.98407184e-14
7.11500001e-14
5.69035422e-14
4.60308795e-14
3.77246546e-14
3.13751209e-14
2.65214428e-14
2.28148618e-14
1.99906851e-14
1.78478138e-14
1.62340847e-14
1.50345787e-14
1.4162263e-14
1.35491942e-14
1.3153865e-14
1.29388045e-14
1.28852061e-14
1.29818925e-14
1.31975045e-14
1.35113583e-14
1.39069363e-14
1.43721505e-14
1.48971827e-14
1.54848607e-14
1.61333174e-14
1.68528311e-14
1.76311217e-14
1.84866126e-14
1.94205872e-14
2.04520947e-14
2.15787016e-14
2.27596671e-14
2.40199341e-14
2.5339572e-14
2.67177496e-14
2.81261462e-14
2.95567782e-14
3.10124921e-14
3.24888282e-14
3.39611581e-14
3.53203195e-14
3.67541717e-14
3.83299583e-14
3.99293134e-14
4.15793299e-14
4.32700027e-14
4.49885241e-14
4.67023074e-14
4.83768208e-14
4.99782393e-14
5.14850372e-14
5.2904695e-14
5.42681964e-14
5.56191538e-14
5.70039252e-14
5.84608504e-14
6.0009707e-14
6.16488709e-14
6.33638621e-14
6.51488642e-14
6.69887922e-14
6.86223875e-14
7.00900857e-14
7.13716822e-14
7.24234907e-14
7.32084777e-14
7.37031903e-14
7.38960536e-14
7.37846289e-14
7.3373831e-14
7.26748707e-14
7.17048611e-14
7.04867574e-14
6.90495624e-14
6.74285581e-14
6.56650465e-14
6.3805021e-14
6.18970388e-14
5.99921442e-14
5.80381003e-14
5.61105552e-14
5.42037334e-14
5.23114382e-14
5.04274393e-14
4.8547098e-14
4.66684898e-14
4.47929112e-14
4.29256476e-14
4.10781922e-14
3.92743092e-14
3.75648587e-14
3.60629676e-14
3.50240893e-14
9.85344291e-14
1.97733581e-13
2.48475773e-13
2.95808993e-13
3.57372309e-13
4.35179599e-13
5.33250362e-13
6.58231076e-13
8.13201351e-13
1.01223172e-12
1.27416417e-12
1.61835661e-12
2.0382076e-12
2.52404964e-12
3.06729553e-12
3.67751999e-12
4.38172456e-12
5.22003514e-12
6.24272242e-12
7.46517834e-12
8.88111956e-12
1.04754584e-11
1.22573631e-11
1.42894945e-11
1.66735867e-11
1.9586243e-11
2.31851296e-11
2.76370584e-11
3.30036109e-11
3.93550044e-11
4.67278684e-11
5.52626229e-11
6.51833886e-11
7.68740816e-11
9.08202534e-11
1.07554995e-10
1.27599293e-10
1.51299535e-10
1.79023429e-10
2.11003506e-10
2.47821765e-10
2.90098554e-10
3.39021966e-10
3.95780231e-10
4.62155278e-10
5.39606556e-10
6.29562128e-10
7.33247991e-10
8.5181299e-10
9.86623728e-10
1.13953895e-09
1.31320826e-09
1.51110452e-09
1.73751916e-09
1.99725078e-09
2.2953724e-09
2.63690359e-09
3.02696488e-09
3.47094842e-09
3.97514228e-09
4.5470715e-09
5.19618738e-09
5.93371604e-09
6.77348982e-09
7.7308859e-09
8.82314306e-09
1.00712422e-08
1.14972183e-08
1.31253971e-08
1.49790479e-08
1.70790549e-08
1.943908e-08
2.20617115e-08
2.49363096e-08
2.8032255e-08
3.13055497e-08
3.46830635e-08
3.80842807e-08
4.14082327e-08
4.45396983e-08
4.7352436e-08
4.97146747e-08
5.14987502e-08
5.25961976e-08
5.29356756e-08
5.25022234e-08
5.13482596e-08
4.95942203e-08
4.74114373e-08
4.49955503e-08
4.25367298e-08
4.01964582e-08
3.8095803e-08
3.63144097e-08
3.48970149e-08
3.38631405e-08
3.3216753e-08
3.29545116e-08
3.30722053e-08
3.35692618e-08
3.4449702e-08
3.57251772e-08
3.74158671e-08
3.95525462e-08
4.21758287e-08
4.53432119e-08
4.91314394e-08
5.36403117e-08
5.89997774e-08
6.53705534e-08
7.29493335e-08
8.19816942e-08
9.2769665e-08
1.05674326e-07
1.21107662e-07
1.39506895e-07
1.61278868e-07
1.86668637e-07
2.1550966e-07
2.4682746e-07
2.78332283e-07
3.06016665e-07
3.24390388e-07
3.27973808e-07
3.13887179e-07
2.83807542e-07
2.4341703e-07
1.99681971e-07
1.58214289e-07
1.22204549e-07
9.2724276e-08
6.95254956e-08
5.17906185e-08
3.85587075e-08
2.88056962e-08
2.17258695e-08
1.66523255e-08
1.25498786e-08
9.18549759e-09
6.72131303e-09
4.9329546e-09
3.61929901e-09
2.63781769e-09
1.90097701e-09
1.36232574e-09
9.78011313e-10
7.04763306e-10
5.09635492e-10
3.69682853e-10
2.6892242e-10
1.96134972e-10
1.43395351e-10
1.05075847e-10
7.71622907e-11
5.67801091e-11
4.18640641e-11
3.0925742e-11
2.28881787e-11
1.69706213e-11
1.26057827e-11
9.38044078e-12
6.99293527e-12
5.22259145e-12
3.90765979e-12
2.92935883e-12
2.20030388e-12
1.65609685e-12
1.24920045e-12
9.4446666e-13
7.15866589e-13
5.44094466e-13
4.14809458e-13
3.17344741e-13
2.43760225e-13
1.88098679e-13
1.45895175e-13
1.13862909e-13
8.95119469e-14
7.09715314e-14
5.68349022e-14
4.60425179e-14
3.77949955e-14
3.14884229e-14
2.66662514e-14
2.29828755e-14
2.01759086e-14
1.804595e-14
1.64421586e-14
1.52505976e-14
1.43849452e-14
1.37779784e-14
1.33872577e-14
1.31778535e-14
1.31307864e-14
1.32330143e-14
1.34530947e-14
1.37720845e-14
1.41743679e-14
1.46470014e-14
1.51789245e-14
1.57741437e-14
1.64311912e-14
1.71618938e-14
1.79522077e-14
1.88176084e-14
1.97625438e-14
2.08069864e-14
2.19479731e-14
2.31413472e-14
2.44129237e-14
2.57460408e-14
2.71387965e-14
2.85634383e-14
3.00065486e-14
3.14726049e-14
3.29604703e-14
3.44473165e-14
3.58467586e-14
3.72834717e-14
3.88396809e-14
4.04383652e-14
4.20881115e-14
4.37771779e-14
4.54923947e-14
4.72025572e-14
4.88734277e-14
5.04717391e-14
5.19763951e-14
5.33950877e-14
5.4758587e-14
5.61094013e-14
5.74922398e-14
5.89438885e-14
6.04831606e-14
6.21080069e-14
6.38039952e-14
6.55667246e-14
6.73973842e-14
6.89920352e-14
7.04285203e-14
7.16817965e-14
7.27055015e-14
7.34627555e-14
7.39308951e-14
7.40989093e-14
7.39646095e-14
7.35329496e-14
7.28150643e-14
7.18279275e-14
7.05943131e-14
6.91430064e-14
6.75090377e-14
6.57334265e-14
6.38618338e-14
6.19422178e-14
6.00197051e-14
5.8060318e-14
5.61242705e-14
5.42086437e-14
5.23083588e-14
5.04174982e-14
4.85314957e-14
4.66483744e-14
4.47693116e-14
4.2899446e-14
4.10501277e-14
3.92449944e-14
3.75347993e-14
3.60325707e-14
3.49936353e-14
8.2175275e-12
1.42654469e-11
1.70078195e-11
1.93924496e-11
2.24210339e-11
2.56754397e-11
2.93751268e-11
3.35952005e-11
3.82292595e-11
4.38180707e-11
5.11620286e-11
6.02114397e-11
6.96233876e-11
7.85167173e-11
8.67738175e-11
9.51169747e-11
1.04555022e-10
1.16296908e-10
1.31021008e-10
1.4786832e-10
1.65583519e-10
1.83472043e-10
2.02225105e-10
2.23421281e-10
2.49528974e-10
2.82915345e-10
3.25070857e-10
3.75858302e-10
4.33617464e-10
4.96993567e-10
5.65499425e-10
6.40492826e-10
7.24694183e-10
8.21939795e-10
9.36028758e-10
1.06962869e-09
1.22322308e-09
1.39510311e-09
1.58342632e-09
1.78706376e-09
2.0081218e-09
2.25010357e-09
2.51946226e-09
2.82151031e-09
3.16282854e-09
3.54562914e-09
3.96960998e-09
4.43244317e-09
4.93205953e-09
5.46891893e-09
6.0471019e-09
6.6742804e-09
7.36028901e-09
8.11543276e-09
8.94812394e-09
9.86354372e-09
1.08634787e-08
1.19481254e-08
1.31182622e-08
1.43773422e-08
1.57322247e-08
1.71931702e-08
1.87719812e-08
2.04809871e-08
2.2329866e-08
2.43263836e-08
2.64774754e-08
2.87854469e-08
3.12484733e-08
3.38561016e-08
3.65869295e-08
3.94051518e-08
4.22608118e-08
4.50909642e-08
4.78234313e-08
5.03819246e-08
5.26868489e-08
5.46677074e-08
5.6255326e-08
5.73863585e-08
5.80093341e-08
5.8087701e-08
5.7608293e-08
5.65899412e-08
5.50870153e-08
5.31886964e-08
5.10102541e-08
4.86806804e-08
4.63275256e-08
4.40656897e-08
4.19896776e-08
4.01706281e-08
3.86571031e-08
3.74787742e-08
3.66512111e-08
3.61807285e-08
3.60688604e-08
3.63164073e-08
3.69270602e-08
3.79093927e-08
3.92768039e-08
4.10503239e-08
4.32596095e-08
4.59441307e-08
4.91514899e-08
5.2947308e-08
5.74189544e-08
6.26782705e-08
6.88645595e-08
7.61452003e-08
8.47164417e-08
9.48203798e-08
1.06747605e-07
1.20827057e-07
1.3740337e-07
1.56792939e-07
1.79213283e-07
2.04622785e-07
2.32454582e-07
2.61260172e-07
2.88355415e-07
3.09704879e-07
3.20498021e-07
3.16727033e-07
2.97269534e-07
2.64864158e-07
2.25034558e-07
1.83721519e-07
1.45392839e-07
1.12440035e-07
8.55493979e-08
6.43737199e-08
4.81717284e-08
3.61121512e-08
2.71915041e-08
2.07161322e-08
1.57032915e-08
1.1623864e-08
8.57870728e-09
6.32523658e-09
4.66162764e-09
3.42473778e-09
2.4958247e-09
1.80195174e-09
1.29700521e-09
9.35235848e-10
6.76333704e-10
4.90479033e-10
3.56640441e-10
2.59969745e-10
1.89948247e-10
1.39095724e-10
1.02073024e-10
7.50560833e-11
5.52970641e-11
4.08162029e-11
3.01832061e-11
2.23604366e-11
1.65945496e-11
1.23371507e-11
9.18813621e-12
6.85499983e-12
5.12347991e-12
3.83633586e-12
2.87796672e-12
2.16323793e-12
1.62934784e-12
1.22989476e-12
9.30540481e-13
7.05834841e-13
5.36886553e-13
4.09652204e-13
3.13679148e-13
2.41184964e-13
1.8630777e-13
1.44681602e-13
1.13071688e-13
8.90290552e-14
7.07138828e-14
5.67418247e-14
4.60696923e-14
3.79100999e-14
3.16679209e-14
2.68929706e-14
2.32442798e-14
2.04629754e-14
1.83523556e-14
1.67635502e-14
1.5583913e-14
1.47280149e-14
1.41302013e-14
1.37466567e-14
1.35457867e-14
1.35084397e-14
1.36189976e-14
1.3845891e-14
1.41726106e-14
1.45845552e-14
1.50681747e-14
1.5612714e-14
1.62189877e-14
1.68889163e-14
1.76349087e-14
1.84440473e-14
1.93277325e-14
2.0288324e-14
2.13516207e-14
2.25113618e-14
2.37253717e-14
2.50174886e-14
2.63696342e-14
2.7783027e-14
2.92292337e-14
3.06945116e-14
3.21788629e-14
3.36826549e-14
3.51876537e-14
3.66315061e-14
3.80864766e-14
3.96214525e-14
4.12171362e-14
4.28650637e-14
4.45512449e-14
4.62626491e-14
4.79671344e-14
4.96313255e-14
5.12236799e-14
5.27241215e-14
5.41405045e-14
5.55028569e-14
5.68523036e-14
5.82314041e-14
5.96746405e-14
6.1199131e-14
6.28020781e-14
6.446912e-14
6.61977811e-14
6.80165497e-14
6.9549159e-14
7.09394131e-14
7.21502819e-14
7.31315176e-14
7.38467762e-14
7.42746781e-14
7.44050683e-14
7.42361262e-14
7.37728583e-14
7.30262843e-14
7.20131697e-14
7.07560175e-14
6.92832893e-14
6.76296411e-14
6.58356758e-14
6.39465698e-14
6.20092021e-14
6.00615151e-14
5.80937377e-14
5.61442379e-14
5.42153131e-14
5.23030415e-14
5.04019055e-14
4.85074284e-14
4.66175503e-14
4.47332739e-14
4.2859522e-14
4.10074237e-14
3.92004243e-14
3.74891201e-14
3.59863922e-14
3.49473681e-14
8.16713309e-10
1.09086268e-09
1.04999249e-09
1.03481537e-09
1.06464749e-09
1.06850224e-09
1.08316618e-09
1.10676013e-09
1.13255923e-09
1.18972882e-09
1.30431462e-09
1.44204411e-09
1.53935332e-09
1.58968152e-09
1.61775591e-09
1.65543152e-09
1.72884736e-09
1.85651557e-09
2.03046381e-09
2.20591611e-09
2.35399969e-09
2.47821676e-09
2.60619149e-09
2.77138906e-09
3.0053433e-09
3.32218372e-09
3.71726959e-09
4.15453758e-09
4.59625205e-09
5.02422822e-09
5.44555987e-09
5.88605942e-09
6.37788519e-09
6.95057967e-09
7.62045196e-09
8.38203382e-09
9.20558098e-09
1.00528659e-08
1.08994881e-08
1.17440189e-08
1.26086168e-08
1.35238312e-08
1.45232834e-08
1.56249571e-08
1.68390318e-08
1.81453439e-08
1.95091477e-08
2.08952146e-08
2.228405e-08
2.3678635e-08
2.51002864e-08
2.65793328e-08
2.81435526e-08
2.98091084e-08
3.15730083e-08
3.34143557e-08
3.53018567e-08
3.72068127e-08
3.91126508e-08
4.10172507e-08
4.29297918e-08
4.48643467e-08
4.68326485e-08
4.88352435e-08
5.08652222e-08
5.29076386e-08
5.49436704e-08
5.69511276e-08
5.8901676e-08
6.07564346e-08
6.24644371e-08
6.39645048e-08
6.51930453e-08
6.60897116e-08
6.66098456e-08
6.67237028e-08
6.64297131e-08
6.57428386e-08
6.46907045e-08
6.33116282e-08
6.16531048e-08
5.97684053e-08
5.77160255e-08
5.55586063e-08
5.33602751e-08
5.11847269e-08
4.90922157e-08
4.71371357e-08
4.53661775e-08
4.3818015e-08
4.25233524e-08
4.15057007e-08
4.07821984e-08
4.03652582e-08
4.02640982e-08
4.04862151e-08
4.10391319e-08
4.19328481e-08
4.31814723e-08
4.48041382e-08
4.68253397e-08
4.92766371e-08
5.21982147e-08
5.56385044e-08
5.96499926e-08
6.4306957e-08
6.97110122e-08
7.59874482e-08
8.32831947e-08
9.17652189e-08
1.0161423e-07
1.13055962e-07
1.26347995e-07
1.41748815e-07
1.59475607e-07
1.79638275e-07
2.02166936e-07
2.26623115e-07
2.51945971e-07
2.76204977e-07
2.96500544e-07
3.09177164e-07
3.10644668e-07
2.98766661e-07
2.7419914e-07
2.40370581e-07
2.02203125e-07
1.64328797e-07
1.29977e-07
1.00739439e-07
7.69432637e-08
5.81680697e-08
4.3802869e-08
3.31917164e-08
2.52738232e-08
1.91902907e-08
1.4272077e-08
1.06207752e-08
7.8896293e-09
5.85008704e-09
4.32533798e-09
3.18032799e-09
2.31948856e-09
1.68110266e-09
1.21697543e-09
8.82121113e-10
6.40653517e-10
4.66264413e-10
3.40068187e-10
2.48548163e-10
1.82029574e-10
1.33577354e-10
9.82099738e-11
7.23409268e-11
5.33818783e-11
3.94609346e-11
2.92212805e-11
2.16758067e-11
1.61060671e-11
1.1987823e-11
8.93780161e-12
6.67526775e-12
4.99422221e-12
3.74324349e-12
2.81084157e-12
2.11479449e-12
1.5943698e-12
1.20463953e-12
9.12317636e-13
6.92706654e-13
5.27454952e-13
4.02906676e-13
3.08888438e-13
2.37825096e-13
1.83973389e-13
1.43107496e-13
1.12051857e-13
8.84139935e-14
7.03945489e-14
5.66385396e-14
4.61242135e-14
3.80799808e-14
3.1922305e-14
2.720931e-14
2.36060291e-14
2.08582569e-14
1.87729875e-14
1.72039058e-14
1.60398946e-14
1.51966265e-14
1.46102626e-14
1.42370696e-14
1.40475145e-14
1.40226e-14
1.4144329e-14
1.43807626e-14
1.47176812e-14
1.51415054e-14
1.56390787e-14
1.62033878e-14
1.68248941e-14
1.75117361e-14
1.82752981e-14
1.91094262e-14
2.00223914e-14
2.10037097e-14
2.20914759e-14
2.32710463e-14
2.45139697e-14
2.58383364e-14
2.72150902e-14
2.86541402e-14
3.01238693e-14
3.16219311e-14
3.3134587e-14
3.46587463e-14
3.61842029e-14
3.76610647e-14
3.91423096e-14
4.06749689e-14
4.22678068e-14
4.3911747e-14
4.55931104e-14
4.7300627e-14
4.89974194e-14
5.06513447e-14
5.22340613e-14
5.37275603e-14
5.51396125e-14
5.64988423e-14
5.7844735e-14
5.92174298e-14
6.06484903e-14
6.21525319e-14
6.37256623e-14
6.5353602e-14
6.70354576e-14
6.88435361e-14
7.02863127e-14
7.16173043e-14
7.27724261e-14
7.36971237e-14
7.43563624e-14
7.47306161e-14
7.48108632e-14
7.45957481e-14
7.40903347e-14
7.33054884e-14
7.22577018e-14
7.09691242e-14
6.94677952e-14
6.77878847e-14
6.59694571e-14
6.40570822e-14
6.20965418e-14
6.01222294e-14
5.81372898e-14
5.6169337e-14
5.42227952e-14
5.22947515e-14
5.03801219e-14
4.84745218e-14
4.65757748e-14
4.46846576e-14
4.28058135e-14
4.09500762e-14
3.91406373e-14
3.74278893e-14
3.59245213e-14
3.48853857e-14
4.51847311e-08
6.04960406e-08
4.05844854e-08
3.20984274e-08
2.74677737e-08
2.24779697e-08
1.98864258e-08
1.86205016e-08
1.77491891e-08
1.78546767e-08
1.910744e-08
2.0094404e-08
1.97062339e-08
1.86172528e-08
1.75713824e-08
1.69535606e-08
1.69512188e-08
1.75827201e-08
1.84786351e-08
1.89529772e-08
1.8904179e-08
1.86350747e-08
1.85076152e-08
1.87883018e-08
1.96015396e-08
2.08987413e-08
2.2468297e-08
2.39353445e-08
2.50710915e-08
2.58933794e-08
2.65758937e-08
2.73235912e-08
2.8299105e-08
2.95866203e-08
3.11692888e-08
3.29111717e-08
3.45954042e-08
3.60542201e-08
3.72573338e-08
3.82950486e-08
3.93104485e-08
4.04319074e-08
4.17404799e-08
4.32445576e-08
4.49028277e-08
4.65922193e-08
4.81762609e-08
4.95703599e-08
5.07743624e-08
5.1854866e-08
5.29047937e-08
5.40070487e-08
5.52094852e-08
5.65142415e-08
5.7875992e-08
5.92237216e-08
6.04898755e-08
6.16383827e-08
6.26711862e-08
6.36163144e-08
6.45102759e-08
6.53864185e-08
6.62593739e-08
6.71192208e-08
6.79445151e-08
6.8710861e-08
6.93964482e-08
6.99803444e-08
7.04385435e-08
7.07399763e-08
7.08470719e-08
7.07218902e-08
7.03356531e-08
6.96725736e-08
6.87373026e-08
6.75473246e-08
6.61430012e-08
6.45654649e-08
6.28560958e-08
6.10545206e-08
5.91980249e-08
5.73207267e-08
5.54552702e-08
5.36338453e-08
5.18880953e-08
5.02498966e-08
4.87499218e-08
4.74171119e-08
4.62779722e-08
4.53562718e-08
4.46728221e-08
4.42455934e-08
4.40898711e-08
4.42191072e-08
4.46457652e-08
4.53821793e-08
4.64415367e-08
4.78408694e-08
4.96005187e-08
5.17467942e-08
5.43110622e-08
5.73316813e-08
6.08552223e-08
6.49343186e-08
6.96184076e-08
7.49891567e-08
8.11594776e-08
8.82617024e-08
9.64412516e-08
1.05852341e-07
1.16642189e-07
1.29011345e-07
1.43169988e-07
1.5928739e-07
1.7743817e-07
1.97523945e-07
2.19232006e-07
2.41828408e-07
2.63950984e-07
2.83492168e-07
2.97716616e-07
3.03609751e-07
2.98677665e-07
2.82002671e-07
2.55111486e-07
2.21445869e-07
1.85253811e-07
1.50239169e-07
1.18885281e-07
9.23398077e-08
7.07502363e-08
5.36721426e-08
4.06323958e-08
3.11259416e-08
2.36045504e-08
1.77692451e-08
1.3282105e-08
9.92247816e-09
7.39874535e-09
5.50127578e-09
4.07269703e-09
2.99621781e-09
2.18897669e-09
1.59242773e-09
1.15752605e-09
8.42074069e-10
6.13460844e-10
4.47663516e-10
3.27260677e-10
2.39678542e-10
1.75855653e-10
1.29260313e-10
9.51790538e-11
7.02051631e-11
5.18719482e-11
3.83902867e-11
2.84598955e-11
2.11329814e-11
1.57181553e-11
1.17100176e-11
8.73845837e-12
6.53197248e-12
4.89105475e-12
3.66886713e-12
2.7571639e-12
2.07602585e-12
1.5663592e-12
1.18440492e-12
8.97712739e-13
6.82184001e-13
5.19896811e-13
3.97504315e-13
3.0505585e-13
2.35144422e-13
1.82117018e-13
1.41861366e-13
1.11251644e-13
8.79395333e-14
7.01580933e-14
5.65759665e-14
4.61886408e-14
3.8237176e-14
3.21473444e-14
2.74840635e-14
2.39173041e-14
2.1196544e-14
1.91315787e-14
1.75781556e-14
1.64266225e-14
1.55937475e-14
1.50166919e-14
1.46520705e-14
1.44715438e-14
1.44569806e-14
1.45874635e-14
1.48322066e-14
1.5177459e-14
1.56113257e-14
1.61201277e-14
1.66992833e-14
1.7335003e-14
1.80356004e-14
1.88149674e-14
1.96681588e-14
2.06031167e-14
2.16038953e-14
2.27122119e-14
2.39095597e-14
2.51727839e-14
2.65211428e-14
2.79203317e-14
2.93812879e-14
3.08713929e-14
3.23920734e-14
3.39265969e-14
3.54693997e-14
3.70116769e-14
3.85087398e-14
4.00074209e-14
4.15450422e-14
4.31383476e-14
4.4779732e-14
4.64571726e-14
4.81600342e-14
4.98504692e-14
5.14961818e-14
5.30707572e-14
5.45580374e-14
5.59658836e-14
5.73218593e-14
5.8663854e-14
6.00300339e-14
6.14496361e-14
6.29355215e-14
6.44830618e-14
6.60779801e-14
6.77191838e-14
6.95250727e-14
7.08845402e-14
7.21701297e-14
7.32801162e-14
7.41583723e-14
7.47715571e-14
7.51017777e-14
7.51409143e-14
7.48879588e-14
7.43480041e-14
7.35317836e-14
7.24555681e-14
7.11412223e-14
6.96164461e-14
6.79150189e-14
6.60765753e-14
6.41452175e-14
6.21660276e-14
6.01721719e-14
5.81714992e-14
5.61882e-14
5.42273251e-14
5.22865266e-14
5.03610109e-14
4.84464535e-14
4.65405772e-14
4.46439683e-14
4.27610424e-14
4.09024032e-14
3.90910397e-14
3.73771716e-14
3.58733272e-14
3.48341341e-14
1.70604948e-27
1.32245508e-27
8.89805476e-28
5.24569863e-28
3.1181625e-28
1.93937789e-28
1.16845355e-28
6.87805463e-29
4.11990406e-29
2.54591091e-29
1.5855462e-29
1.00251932e-29
6.41600499e-30
4.32734272e-30
2.82694657e-30
2.05384051e-30
1.60818717e-30
1.23477728e-30
9.76016982e-31
7.72680884e-31
6.47552113e-31
5.36580014e-31
4.49306947e-31
3.87125914e-31
3.33490276e-31
3.05811963e-31
2.83836927e-31
2.86402454e-31
2.0387141e-30
1.31550579e-28
9.18002789e-27
6.42759918e-25
4.51321156e-23
3.18542674e-21
2.2625799e-19
1.62106452e-17
1.17996388e-15
8.82035653e-14
7.00473097e-12
6.05210553e-10
3.78629724e-28
5.28239055e-28
4.29494858e-28
3.36739381e-28
2.64259672e-28
1.89112692e-28
1.27515893e-28
8.68924489e-29
5.90065219e-29
3.93547763e-29
2.63515952e-29
1.77387019e-29
1.26959052e-29
8.68033412e-30
6.0630198e-30
4.39225719e-30
3.34848964e-30
2.48301414e-30
1.91614907e-30
1.53556483e-30
1.22781955e-30
1.00518904e-30
7.90783959e-31
7.09855887e-31
5.79127037e-31
5.00281868e-31
4.3160384e-31
3.90256745e-31
6.2135638e-31
2.19938181e-29
1.52091764e-27
1.06182811e-25
7.42556202e-24
5.20055493e-22
3.64142554e-20
2.54502434e-18
1.77280058e-16
1.22585061e-14
8.34342802e-13
5.36575518e-11
5.02505256e-29
9.59332024e-29
1.09929374e-28
1.06713369e-28
9.717312e-29
8.43961289e-29
7.01950393e-29
6.31203582e-29
5.36516016e-29
4.41658247e-29
3.45905895e-29
2.65851226e-29
2.05106856e-29
1.56037219e-29
1.23051674e-29
9.53150611e-30
7.2935888e-30
5.70192813e-30
4.37824242e-30
3.4824462e-30
2.7622969e-30
2.29909533e-30
1.84146694e-30
1.46356674e-30
1.18328072e-30
9.90844261e-31
8.40751993e-31
7.0031034e-31
6.35641104e-31
4.39134032e-30
2.74665337e-28
1.89116253e-26
1.29800443e-24
8.83790776e-23
5.93739857e-21
3.91079568e-19
2.50016453e-17
1.52922744e-15
8.65209947e-14
4.26555431e-12
1.21558597e-29
2.97177976e-29
4.36685375e-29
5.15272016e-29
5.42230558e-29
5.31214521e-29
4.95426178e-29
4.51416657e-29
4.03510317e-29
3.5600322e-29
3.14156339e-29
2.72358865e-29
2.30268753e-29
1.91757663e-29
1.57212038e-29
1.26813761e-29
1.02447255e-29
8.42517921e-30
6.82486676e-30
5.44069607e-30
4.36219263e-30
3.51099227e-30
2.77883484e-30
2.22630704e-30
1.79885058e-30
1.4860305e-30