/*--------------------------------*- C++ -*----------------------------------*\
  =========                 |
  \\      /  F ield         | OpenFOAM: The Open Source CFD Toolbox
   \\    /   O peration     | Website:  https://openfoam.org
    \\  /    A nd           | Version:  6
     \\/     M anipulation  |
\*---------------------------------------------------------------------------*/
FoamFile
{
    version     2.0;
    format      ascii;
    class       volScalarField;
    location    "25000";
    object      CH2CO;
}
// * * * * * * * * * * * * * * * * * * * * * * * * * * * * * * * * * * * * * //

dimensions      [0 0 0 0 0 0 0];

internalField   nonuniform List<scalar> 
44870
(
6.65088973e-100
8.21589446e-98
1.00993411e-95
1.25547528e-93
1.57964603e-91
2.01285202e-89
2.59929006e-87
3.40392726e-85
4.52389493e-83
6.10586693e-81
8.37483718e-79
1.16800088e-76
1.65709718e-74
2.39247362e-72
3.51576839e-70
5.2591964e-68
8.00767143e-66
1.2409121e-63
1.9565258e-61
3.13790766e-59
5.11675845e-57
8.48025537e-55
1.42770859e-52
2.44076176e-50
4.23446574e-48
7.4523146e-46
1.32945605e-43
2.40309659e-41
4.39670255e-39
8.1381163e-37
1.52138784e-34
2.8699912e-32
5.44696997e-30
1.03787605e-27
1.97312379e-25
3.71992471e-23
6.85091602e-21
1.20830068e-18
1.92212355e-16
2.58950035e-14
4.80226298e-100
5.89618376e-98
7.21208679e-96
8.94512448e-94
1.12744456e-91
1.44682939e-89
1.89424362e-87
2.53466764e-85
3.47187237e-83
4.87369547e-81
7.01713881e-79
1.03653e-76
1.57061314e-74
2.44005978e-72
3.88273312e-70
6.32248574e-68
1.05191454e-65
1.78627964e-63
3.09069483e-61
5.44390367e-59
9.74512204e-57
1.77198112e-54
3.26743442e-52
6.10999472e-50
1.15663922e-47
2.2180966e-45
4.30025569e-43
8.44072263e-41
1.67309719e-38
3.3572322e-36
6.79593742e-34
1.39270942e-31
2.8753959e-29
6.01047376e-27
1.26233361e-24
2.67774989e-22
5.65620517e-20
1.19264883e-17
2.35156063e-15
4.41332498e-13
2.06221454e-100
2.46687573e-98
2.97046616e-96
3.6959822e-94
4.79090771e-92
6.50595109e-90
9.29087271e-88
1.39663154e-85
2.20562179e-83
3.64655606e-81
6.27842824e-79
1.11926642e-76
2.05417562e-74
3.86141252e-72
7.39860045e-70
1.44123711e-67
2.84256238e-65
5.67055395e-63
1.1408004e-60
2.31433493e-58
4.7251433e-56
9.71624253e-54
2.00793635e-51
4.17850956e-49
8.73113936e-47
1.83814164e-44
3.88313916e-42
8.27273866e-40
1.7673077e-37
3.81347168e-35
8.24414088e-33
1.80364293e-30
3.94805281e-28
8.77038449e-26
1.94773193e-23
4.40251564e-21
9.93579902e-19
2.30059095e-16
5.11285186e-14
1.1676642e-11
4.28719498e-101
5.12529187e-99
6.946504e-97
1.09092804e-94
1.95444894e-92
3.87764006e-90
8.25338762e-88
1.83588206e-85
4.18764327e-83
9.67353713e-81
2.24499251e-78
5.20878504e-76
1.20441698e-73
2.77192578e-71
6.34240037e-69
1.44304352e-66
3.26405276e-64
7.34616973e-62
1.64492086e-59
3.66778335e-57
8.14908342e-55
1.80552306e-52
3.99015556e-50
8.80647285e-48
1.94055566e-45
4.27655681e-43
9.41848573e-41
2.07701482e-38
4.58006909e-36
1.01292707e-33
2.24070943e-31
4.97889239e-29
1.10655754e-26
2.47424081e-24
5.53309246e-22
1.2441944e-19
2.79042319e-17
6.26723328e-15
1.36211768e-12
2.87948136e-10
5.53839898e-102
1.70289592e-99
5.72965152e-97
1.91809442e-94
6.19456768e-92
1.91861624e-89
5.70581838e-87
1.63431501e-84
4.52424223e-82
1.21459365e-79
3.1723989e-77
8.08551251e-75
2.01637216e-72
4.93223788e-70
1.18603375e-67
2.8092819e-65
6.56627236e-63
1.51691698e-60
3.46850848e-58
7.85987162e-56
1.76710452e-53
3.94567509e-51
8.75731915e-49
1.93354896e-46
4.24980169e-44
9.30468767e-42
2.03041974e-39
4.41729475e-37
9.58702046e-35
2.07612585e-32
4.48823494e-30
9.68786943e-28
2.08868736e-25
4.49843026e-23
9.68079235e-21
2.08178487e-18
4.47447677e-16
9.6117101e-14
2.0637357e-11
4.45263973e-09
8.26654309e-13
3.45161703e-12
8.98398427e-12
1.92711516e-11
3.70195145e-11
6.58882379e-11
1.10589296e-10
1.773714e-10
2.74149367e-10
4.12096208e-10
6.05425571e-10
8.746487e-10
1.24529744e-09
1.75338679e-09
2.44402315e-09
3.37560227e-09
4.62456816e-09
6.28269591e-09
8.47653697e-09
1.1350184e-08
1.5099677e-08
1.99563571e-08
2.62137392e-08
3.42368312e-08
4.44712959e-08
5.74798594e-08
7.38870108e-08
9.46063217e-08
1.2049422e-07
1.52922587e-07
1.93242735e-07
2.43242467e-07
3.05046721e-07
3.80913235e-07
4.73938294e-07
5.87082395e-07
7.24524063e-07
8.90193118e-07
1.08939658e-06
1.32742396e-06
1.61092416e-06
1.94701132e-06
2.34375743e-06
2.80934357e-06
3.35401479e-06
3.98646584e-06
4.71613617e-06
5.55262402e-06
6.5057014e-06
7.58546059e-06
8.80206369e-06
1.01659511e-05
1.16871618e-05
1.33755697e-05
1.52398079e-05
1.72874517e-05
1.95238948e-05
2.19526121e-05
2.45746744e-05
2.73891887e-05
3.03935681e-05
3.35836802e-05
3.69548743e-05
4.05015604e-05
4.42195928e-05
4.81046533e-05
5.21555724e-05
5.63712933e-05
6.07536303e-05
6.53027503e-05
7.00189697e-05
7.4899956e-05
7.99399821e-05
8.51340234e-05
9.04699524e-05
9.59458634e-05
0.000101541878
0.000107255622
0.000113080109
0.000119011112
0.000125045047
0.000131179604
0.000137414654
0.000143750245
0.000150187168
0.000156725005
0.000163364959
0.000170105083
0.000176944102
0.000183881108
0.000190914845
0.00019804606
0.000205276346
0.000212610037
0.000220054719
0.000227621797
0.000235326667
0.000243189336
0.000251234368
0.000259492157
0.000267995806
0.000276784801
0.000285902088
0.000295396036
0.000305318161
0.000315726665
0.000326687616
0.000338277327
0.000350591464
0.000363743439
0.000377868351
0.000393123608
0.000409692779
0.000427787207
0.000447634961
0.000469454757
0.000493406179
0.000519487063
0.000547343724
0.000575964688
0.000603281003
0.000625817119
0.000638779352
0.000637084368
0.00061737918
0.000579906424
0.000528682467
0.000469736859
0.000408927028
0.000350599444
0.000297326553
0.000250236313
0.000209517717
0.000174813194
0.000145480967
0.00012078799
9.99914928e-05
8.24100045e-05
6.74506513e-05
5.46113077e-05
4.34555006e-05
3.35967914e-05
2.48983505e-05
1.76608956e-05
1.22729e-05
8.55921027e-06
6.02517119e-06
4.27604967e-06
3.06316711e-06
2.21076972e-06
1.60312492e-06
1.16633151e-06
8.50919055e-07
6.21681487e-07
4.54423494e-07
3.32626292e-07
2.43969513e-07
1.79359907e-07
1.32185507e-07
9.76657024e-08
7.23458902e-08
5.37269803e-08
4.00032693e-08
2.98651375e-08
2.23564535e-08
1.6773715e-08
1.26078179e-08
9.49210021e-09
7.15701648e-09
5.40402458e-09
4.0864055e-09
3.09590978e-09
2.35009213e-09
1.78770341e-09
1.36284431e-09
1.04113951e-09
7.97267542e-10
6.12156405e-10
4.71458811e-10
3.64411838e-10
2.82956397e-10
2.21066561e-10
1.7391803e-10
1.37896496e-10
1.10293645e-10
8.90736768e-11
7.27041647e-11
6.00336141e-11
5.01976897e-11
4.25445359e-11
3.65753032e-11
3.19209706e-11
2.82957913e-11
2.54929861e-11
2.3346104e-11
2.17252968e-11
2.05342366e-11
1.9700841e-11
1.91691985e-11
1.88887667e-11
1.8824566e-11
1.89497044e-11
1.92469635e-11
1.96894493e-11
2.02708163e-11
2.09720506e-11
2.17956866e-11
2.27205402e-11
2.3716074e-11
2.47874068e-11
2.59126659e-11
2.70881626e-11
2.82858165e-11
2.95029783e-11
3.07336802e-11
3.19722427e-11
3.32015098e-11
3.4364588e-11
3.55591037e-11
3.68179572e-11
3.8087143e-11
3.93748133e-11
4.06763271e-11
4.19872338e-11
4.32913984e-11
4.45728408e-11
4.58166247e-11
4.70150509e-11
4.81754633e-11
4.93163163e-11
5.04618887e-11
5.1637923e-11
5.28664377e-11
5.41607329e-11
5.55240897e-11
5.69537775e-11
5.84522166e-11
6.00156365e-11
6.1523475e-11
6.30009059e-11
6.44433371e-11
6.58321082e-11
6.71503054e-11
6.83864022e-11
6.95335691e-11
7.05885796e-11
7.15512886e-11
7.24246495e-11
7.32150752e-11
7.393296e-11
7.45931505e-11
7.52150289e-11
7.58217289e-11
7.64380687e-11
7.70880055e-11
7.77984631e-11
7.85112345e-11
7.92609701e-11
8.00235675e-11
8.07726266e-11
8.14840101e-11
8.21382598e-11
8.27221618e-11
8.32289828e-11
8.36576855e-11
8.40116103e-11
8.42969031e-11
8.4520599e-11
8.46874796e-11
8.47926111e-11
1.70595759e-11
6.12355681e-11
1.38773866e-10
2.68977145e-10
4.78016217e-10
7.9704656e-10
1.26210328e-09
1.9230491e-09
2.844952e-09
4.12495188e-09
5.88798366e-09
8.31412184e-09
1.16217684e-08
1.61085862e-08
2.21309929e-08
3.01307485e-08
4.06613524e-08
5.43621196e-08
7.20698882e-08
9.46901815e-08
1.23385604e-07
1.59461292e-07
2.04425726e-07
2.60121508e-07
3.28394085e-07
4.11717311e-07
5.12394459e-07
6.3358498e-07
7.78108718e-07
9.49740809e-07
1.15196226e-06
1.3888401e-06
1.66425259e-06
1.98229964e-06
2.34715859e-06
2.76280773e-06
3.23371117e-06
3.76369561e-06
4.35753282e-06
5.01894241e-06
5.7527276e-06
6.562291e-06
7.45167358e-06
8.42278467e-06
9.48045716e-06
1.06259515e-05
1.18616565e-05
1.31902455e-05
1.46147499e-05
1.61386521e-05
1.77657714e-05
1.95004099e-05
2.1347124e-05
2.33109295e-05
2.53970576e-05
2.76111147e-05
2.99585998e-05
3.24448875e-05
3.50746334e-05
3.78516832e-05
4.07786468e-05
4.3857071e-05
4.70874326e-05
5.04696851e-05
5.40039369e-05
5.76898919e-05
6.15292865e-05
6.55237717e-05
6.96764946e-05
7.39893546e-05
7.84640233e-05
8.30998768e-05
8.78936798e-05
9.28418459e-05
9.79355873e-05
0.000103172871
0.000108537119
0.000114026058
0.000119633224
0.000125354769
0.000131186651
0.000137126809
0.000143175013
0.000149330953
0.000155594832
0.000161966157
0.000168445269
0.000175030461
0.000181720248
0.000188514172
0.000195411329
0.00020241268
0.000209520975
0.000216741486
0.000224082685
0.000231556652
0.000239179287
0.000246970922
0.000254956266
0.000263165803
0.000271632256
0.00028039475
0.000289495879
0.000298983392
0.000308907578
0.000319325376
0.000330301315
0.000341911137
0.00035425
0.000367430123
0.000381582646
0.000396859921
0.000413438703
0.000431518813
0.000451310153
0.000473002805
0.000496714586
0.000522383779
0.000549576414
0.000577185652
0.000603060176
0.000623711216
0.000634478936
0.000630602204
0.000609165347
0.000570751358
0.000519450542
0.000461104434
0.000401279127
0.000344070041
0.000291884196
0.000245761778
0.00020586541
0.000171838692
0.000143050137
0.000118787787
9.83274836e-05
8.10086492e-05
6.62591472e-05
5.35993481e-05
4.25820125e-05
3.28448368e-05
2.42901737e-05
1.72339149e-05
1.20113099e-05
8.40289275e-06
5.92881864e-06
4.21471796e-06
3.02300961e-06
2.18388545e-06
1.58466946e-06
1.15351985e-06
8.42030783e-07
6.15422919e-07
4.50054382e-07
3.29605009e-07
2.41878354e-07
1.7790695e-07
1.31170938e-07
9.69534053e-08
7.18430359e-08
5.33703572e-08
3.9749132e-08
2.96833407e-08
2.22263637e-08
1.66810784e-08
1.25416739e-08
9.44468496e-09
7.12287258e-09
5.3793359e-09
4.06845526e-09
3.08280374e-09
2.34051117e-09
1.78070682e-09
1.35773131e-09
1.03738584e-09
7.94524291e-10
6.10159232e-10
4.70012528e-10
3.63374307e-10
2.82226041e-10
2.20558119e-10
1.73568198e-10
1.3766089e-10
1.10140925e-10
8.89814008e-11
7.26556868e-11
6.00166867e-11
5.02040256e-11
4.25687699e-11
3.66123958e-11
3.19683284e-11
2.83504858e-11
2.55540612e-11
2.3412791e-11
2.17964132e-11
2.06089006e-11
1.97790375e-11
1.92513461e-11
1.89741434e-11
1.89131025e-11
1.90412488e-11
1.93422045e-11
1.97880879e-11
2.03714388e-11
2.10753134e-11
2.19023756e-11
2.28308021e-11
2.38280167e-11
2.49002257e-11
2.60279519e-11
2.72066068e-11
2.84072782e-11
2.96251028e-11
3.08559917e-11
3.20961547e-11
3.33279588e-11
3.44885827e-11
3.56840393e-11
3.69444572e-11
3.82116546e-11
3.94977134e-11
4.07968425e-11
4.21048605e-11
4.34064808e-11
4.46857734e-11
4.59276714e-11
4.71245419e-11
4.82839265e-11
4.9424267e-11
5.05695085e-11
5.17449216e-11
5.29721907e-11
5.42644589e-11
5.5624945e-11
5.705094e-11
5.85451186e-11
6.01081717e-11
6.1608183e-11
6.30798255e-11
6.45174711e-11
6.59017648e-11
6.72157506e-11
6.84480223e-11
6.95918311e-11
7.06439713e-11
7.16042803e-11
7.24756738e-11
7.32645142e-11
7.39811335e-11
7.46403005e-11
7.52613e-11
7.58671444e-11
7.64825032e-11
7.71311455e-11
7.78416489e-11
7.85502784e-11
7.9298098e-11
8.00582963e-11
8.08047843e-11
8.15136261e-11
8.21654843e-11
8.27472169e-11
8.32521269e-11
8.36791858e-11
8.40317239e-11
8.4315869e-11
8.45386405e-11
8.4704828e-11
8.48097013e-11
6.41818253e-10
2.00987013e-09
4.07167812e-09
7.23018478e-09
1.18088771e-08
1.80915962e-08
2.64417118e-08
3.74563334e-08
5.20184799e-08
7.14087383e-08
9.72017911e-08
1.31321512e-07
1.75818245e-07
2.33000574e-07
3.05249583e-07
3.95229445e-07
5.05848642e-07
6.40253191e-07
8.01997124e-07
9.94694106e-07
1.22223152e-06
1.48837556e-06
1.79686702e-06
2.15139162e-06
2.55535882e-06
3.01274447e-06
3.52665028e-06
4.10140782e-06
4.73933963e-06
5.44399876e-06
6.21742772e-06
7.06123712e-06
7.97588029e-06
8.96156923e-06
1.00177039e-05
1.11438177e-05
1.23393538e-05
1.36037101e-05
1.49366731e-05
1.63368487e-05
1.78034134e-05
1.93337997e-05
2.09265458e-05
2.25775366e-05
2.42880614e-05
2.60548258e-05
2.78769176e-05
2.97541849e-05
3.16870867e-05
3.36766638e-05
3.5724263e-05
3.78320289e-05
4.00026756e-05
4.2239768e-05
4.4547636e-05
4.69313604e-05
4.93964103e-05
5.19484483e-05
5.4592884e-05
5.73346299e-05
6.01779488e-05
6.31267795e-05
6.61845588e-05
6.93556643e-05
7.26437859e-05
7.60533438e-05
7.95904766e-05
8.3260644e-05
8.70697122e-05
9.10225301e-05
9.512315e-05
9.937359e-05
0.000103773879
0.000108322638
0.000113015272
0.000117849993
0.000122815635
0.00012791052
0.000133130008
0.000138471225
0.000143931558
0.000149509895
0.000155206095
0.000161020097
0.000166951661
0.000173000477
0.000179165805
0.000185446956
0.000191842683
0.000198352782
0.000204978199
0.000211721502
0.000218587362
0.000225583085
0.000232719034
0.000240008722
0.000247469119
0.000255121272
0.000262990211
0.000271106353
0.000279501858
0.000288214975
0.000297287513
0.000306765652
0.000316696674
0.000327134099
0.000338139237
0.000349786957
0.000362170567
0.000375398865
0.000389593382
0.000404894348
0.000421460953
0.000439465989
0.000459076873
0.00048041713
0.00050351042
0.000528163803
0.000553771789
0.000579033706
0.000601651736
0.000618159852
0.000624242505
0.000615853515
0.000590975248
0.000550828194
0.000499582617
0.000442645146
0.000384977141
0.000330165363
0.000280289576
0.00023621476
0.000198057343
0.000165465552
0.000137827964
0.000114479984
9.47350327e-05
7.79780382e-05
6.36814744e-05
5.14076184e-05
4.06937275e-05
3.12293432e-05
2.30038568e-05
1.6346126e-05
1.14669003e-05
8.07429157e-06
5.724433e-06
4.08383838e-06
2.9363131e-06
2.12567039e-06
1.54462402e-06
1.12569643e-06
8.22742475e-07
6.01853273e-07
4.40636053e-07
3.23092812e-07
2.37366975e-07
1.74768462e-07
1.28976752e-07
9.54111596e-08
7.07530018e-08
5.25965275e-08
3.91972199e-08
2.92882412e-08
2.19432909e-08
1.64792205e-08
1.23975011e-08
9.34129356e-09
7.04839284e-09
5.32546107e-09
4.02929245e-09
3.0541966e-09
2.31959368e-09
1.76543166e-09
1.34656836e-09
1.02918425e-09
7.88533065e-10
6.05798066e-10
4.6685512e-10
3.61110225e-10
2.80634045e-10
2.1944863e-10
1.72805303e-10
1.37148027e-10
1.09809024e-10
8.87809175e-11
7.25509012e-11
5.99818036e-11
5.02205126e-11
4.26235275e-11
3.66971956e-11
3.20733228e-11
2.8472759e-11
2.56900635e-11
2.35599949e-11
2.19528383e-11
2.07739561e-11
1.99525038e-11
1.94328898e-11
1.91627458e-11
1.91084855e-11
1.92434161e-11
1.95519963e-11
2.00054249e-11
2.05944097e-11
2.13038275e-11
2.21372986e-11
2.30723252e-11
2.407444e-11
2.51504545e-11
2.62827805e-11
2.7466591e-11
2.86730363e-11
2.9894174e-11
3.11269191e-11
3.23694622e-11
3.36053682e-11
3.47843762e-11
3.59765847e-11
3.72231739e-11
3.84858711e-11
3.97676864e-11
4.10619257e-11
4.23642747e-11
4.36603253e-11
4.49344095e-11
4.61718512e-11
4.73652765e-11
4.85222959e-11
4.96612086e-11
5.08053779e-11
5.19792422e-11
5.32037352e-11
5.44915663e-11
5.58457856e-11
5.7263738e-11
5.87488175e-11
6.03112775e-11
6.17937715e-11
6.3252962e-11
6.46802674e-11
6.60548071e-11
6.73595896e-11
6.85834914e-11
6.97199448e-11
7.07657902e-11
7.17208263e-11
7.25878856e-11
7.337322e-11
7.40870252e-11
7.47439009e-11
7.53629204e-11
7.59668364e-11
7.65799977e-11
7.72257088e-11
7.79269899e-11
7.86356235e-11
7.93796089e-11
8.01345576e-11
8.08754311e-11
8.15787215e-11
8.22253518e-11
8.28023373e-11
8.33030593e-11
8.37265092e-11
8.40759979e-11
8.43576142e-11
8.4578343e-11
8.47429853e-11
8.48470956e-11
2.57907069e-08
6.38060259e-08
1.13603802e-07
1.75339443e-07
2.47965386e-07
3.30607272e-07
4.26082557e-07
5.42645962e-07
6.91515083e-07
8.84406066e-07
1.13081048e-06
1.43704364e-06
1.80547822e-06
2.23715586e-06
2.73249132e-06
3.29433919e-06
3.92642013e-06
4.63401621e-06
5.42227698e-06
6.29387813e-06
7.24927795e-06
8.2855514e-06
9.39960194e-06
1.05871626e-05
1.18472131e-05
1.31794723e-05
1.45858467e-05
1.60690078e-05
1.76265211e-05
1.92578795e-05
2.09579613e-05
2.27196435e-05
2.45349995e-05
2.63970199e-05
2.83001041e-05
3.02405301e-05
3.22154984e-05
3.4222831e-05
3.62596435e-05
3.83216894e-05
4.04046962e-05
4.25036134e-05
4.46151888e-05
4.67346439e-05
4.88646683e-05
5.10034108e-05
5.3152446e-05
5.53142302e-05
5.74915777e-05
5.9687208e-05
6.19040024e-05
6.41453659e-05
6.64151877e-05
6.87182215e-05
7.10595558e-05
7.34445477e-05
7.58782392e-05
7.83652265e-05
8.09095307e-05
8.35145209e-05
8.61837439e-05
8.89212258e-05
9.17324121e-05
9.46240187e-05
9.76036838e-05
0.000100679748
0.000103861311
0.000107156736
0.0001105741
0.000114120153
0.000117800331
0.000121617946
0.000125574446
0.000129669301
0.0001339
0.000138264832
0.000142757307
0.000147376947
0.000152121826
0.000156991
0.000161985239
0.00016710501
0.000172350784
0.000177723417
0.000183222627
0.000188848623
0.000194600679
0.000200478657
0.000206483004
0.000212615342
0.000218879149
0.000225279803
0.000231824799
0.00023852426
0.000245391021
0.000252440364
0.000259690555
0.000267163552
0.000274884562
0.000282882928
0.000291190476
0.000299843942
0.000308883623
0.000318352657
0.000328292612
0.000338749824
0.000349781867
0.000361462501
0.000373881104
0.0003871385
0.000401338239
0.000416597644
0.000433045062
0.000450807079
0.000469979096
0.000490574265
0.000512469351
0.000535275088
0.000558145313
0.000579536069
0.000597027791
0.000607323825
0.000606740154
0.000592292715
0.000563138073
0.000521187452
0.000470555182
0.000415954177
0.000361522836
0.00031018868
0.000263616718
0.000222447765
0.000186758851
0.000156208479
0.00013020775
0.000108168462
8.94509785e-05
7.35094235e-05
5.99247707e-05
4.81956866e-05
3.79177917e-05
2.88884133e-05
2.11937536e-05
1.51283333e-05
1.07166834e-05
7.61257635e-06
5.43294627e-06
3.89535261e-06
2.80851546e-06
2.03974524e-06
1.4852456e-06
1.08438395e-06
7.941694e-07
5.8195212e-07
4.26851358e-07
3.13552026e-07
2.30745881e-07
1.7015185e-07
1.25742206e-07
9.31329931e-08
6.9139655e-08
5.1449008e-08
3.83775763e-08
2.87007316e-08
2.15214209e-08
1.61776374e-08
1.21820242e-08
9.18665267e-09
6.93692018e-09
5.24477061e-09
3.97066099e-09
3.01132807e-09
2.28823639e-09
1.74253333e-09
1.32974773e-09
1.01687357e-09
7.79546452e-10
5.9925797e-10
4.62122131e-10
3.57718783e-10
2.78250318e-10
2.1778722e-10
1.71664051e-10
1.36382432e-10
1.09314878e-10
8.84836064e-11
7.23975796e-11
5.99344785e-11
5.0250707e-11
4.27102618e-11
3.68272435e-11
3.22362231e-11
2.86623506e-11
2.58998239e-11
2.37856317e-11
2.21922085e-11
2.10272605e-11
2.02188342e-11
1.9710664e-11
1.94518537e-11
1.94075748e-11
1.9553064e-11
1.98721019e-11
2.03370231e-11
2.09365567e-11
2.16537492e-11
2.24960542e-11
2.34388276e-11
2.44496815e-11
2.5533902e-11
2.66721401e-11
2.78621644e-11
2.90753225e-11
3.03038095e-11
3.15412449e-11
3.27861932e-11
3.40256031e-11
3.52226779e-11
3.64189583e-11
3.76489121e-11
3.89036515e-11
4.0178084e-11
4.14648251e-11
4.27595004e-11
4.4047143e-11
4.53127145e-11
4.65427836e-11
4.77306282e-11
4.88837698e-11
5.00200073e-11
5.1162011e-11
5.23331864e-11
5.35533581e-11
5.48344429e-11
5.61791779e-11
5.7584993e-11
5.90562846e-11
6.06193931e-11
6.20735474e-11
6.35145397e-11
6.49265499e-11
6.62864604e-11
6.75773843e-11
6.87886723e-11
6.99140358e-11
7.09503813e-11
7.18974466e-11
7.27579379e-11
7.3537941e-11
7.42474471e-11
7.49008024e-11
7.55167646e-11
7.61177005e-11
7.67274843e-11
7.73685212e-11
7.80569787e-11
7.87653906e-11
7.95030205e-11
8.0249992e-11
8.09824038e-11
8.16773352e-11
8.23160911e-11
8.28859211e-11
8.33803232e-11
8.37983189e-11
8.41431935e-11
8.4420978e-11
8.4638605e-11
8.48008867e-11
8.49036854e-11
1.00129839e-06
1.55168565e-06
2.02411707e-06
2.43432156e-06
2.79401913e-06
3.11150159e-06
3.51262512e-06
4.15000204e-06
5.09552095e-06
6.33831785e-06
7.8111798e-06
9.42145158e-06
1.108613e-05
1.27679826e-05
1.4476259e-05
1.62512763e-05
1.81388229e-05
2.01666221e-05
2.23303081e-05
2.45953146e-05
2.69147859e-05
2.92471179e-05
3.15719071e-05
3.38912582e-05
3.62289664e-05
3.86125062e-05
4.10697564e-05
4.35992827e-05
4.61887589e-05
4.88079098e-05
5.14210568e-05
5.39973191e-05
5.65187858e-05
5.89823119e-05
6.13951129e-05
6.37687911e-05
6.61122324e-05
6.84291785e-05
7.07164233e-05
7.29675164e-05
7.51764899e-05
7.73407234e-05
7.94627739e-05
8.15465762e-05
8.3605319e-05
8.56474703e-05
8.76823524e-05
8.97165235e-05
9.17538316e-05
9.37968151e-05
9.58482896e-05
9.79125523e-05
9.99948895e-05
0.000102101389
0.000104236961
0.000106405287
0.000108608001
0.000110845672
0.000113118621
0.000115427551
0.000117775504
0.000120168402
0.000122616516
0.000125129997
0.000127721372
0.000130401032
0.000133178152
0.000136061248
0.000139058063
0.000142174252
0.000145413988
0.000148778965
0.000152269089
0.000155882464
0.000159616513
0.000163469821
0.000167440231
0.000171529716
0.00017574026
0.000180075107
0.000184538225
0.000189132738
0.000193860569
0.000198723135
0.000203720376
0.000208853416
0.000214122248
0.000219528196
0.000225074421
0.000230765745
0.000236609169
0.00024261367
0.000248790188
0.000255151937
0.000261714129
0.000268493608
0.000275509559
0.000282784896
0.000290342986
0.000298211713
0.000306422529
0.000315009328
0.00032400952
0.000333460737
0.000343393134
0.000353841806
0.00036486083
0.000376522267
0.000388908732
0.000402104285
0.000416177799
0.00043121105
0.000447283641
0.000464450312
0.000482696955
0.000501874054
0.000521664248
0.000541434641
0.00056007454
0.000575831556
0.000586322722
0.000588695359
0.000580222695
0.000559188776
0.000525947619
0.000482896431
0.000433866125
0.000382627503
0.00033239836
0.000285411983
0.000242903419
0.000205269704
0.000172594102
0.000144546067
0.000120548058
0.000100130055
8.26898251e-05
6.78713039e-05
5.51483214e-05
4.40846184e-05
3.43906053e-05
2.59926703e-05
1.90473735e-05
1.37157049e-05
9.83279233e-06
7.05535691e-06
5.07478051e-06
3.66104363e-06
2.65119334e-06
1.92942767e-06
1.40842591e-06
1.03086553e-06
7.57706255e-07
5.56709716e-07
4.09366762e-07
3.01422675e-07
2.22301494e-07
1.64244263e-07
1.21590562e-07
9.02004583e-08
6.70571615e-08
4.99637846e-08
3.7314611e-08
2.79375055e-08
2.0972289e-08
1.57834865e-08
1.1900195e-08
8.98416169e-09
6.79080022e-09
5.13889944e-09
3.89369381e-09
2.95503494e-09
2.24704073e-09
1.71245366e-09
1.30760846e-09
1.00069049e-09
7.67732745e-10
5.90662627e-10
4.55905576e-10
3.53269302e-10
2.75123408e-10
2.15608408e-10
1.70169381e-10
1.3538258e-10
1.08672354e-10
8.8099862e-11
7.22037289e-11
5.98812855e-11
5.03002166e-11
4.28336106e-11
3.70063826e-11
3.24603397e-11
2.8922523e-11
2.61862441e-11
2.40923223e-11
2.25170822e-11
2.13712623e-11
2.05800794e-11
2.00861944e-11
1.98436394e-11
1.9812845e-11
1.99722772e-11
2.03033399e-11
2.07831107e-11
2.13995062e-11
2.21270768e-11
2.29800446e-11
2.39296386e-11
2.49529115e-11
2.60511001e-11
2.71967298e-11
2.83931158e-11
2.96119969e-11
3.08522633e-11
3.20984097e-11
3.33458573e-11
3.45873202e-11
3.57943956e-11
3.69978394e-11
3.8219246e-11
3.94638865e-11
4.07275848e-11
4.20040511e-11
4.32894578e-11
4.4566044e-11
4.58196713e-11
4.70391844e-11
4.82191304e-11
4.93666709e-11
5.04986761e-11
5.16370365e-11
5.28040522e-11
5.40181504e-11
5.52900616e-11
5.66220542e-11
5.80116636e-11
5.94640854e-11
6.10317954e-11
6.24438063e-11
6.38620373e-11
6.52542789e-11
6.65948988e-11
6.78674662e-11
6.90620406e-11
7.01727058e-11
7.11964477e-11
7.21329183e-11
7.29846557e-11
7.3757527e-11
7.44612543e-11
7.51098512e-11
7.57216615e-11
7.63185489e-11
7.69237794e-11
7.75587776e-11
7.82360773e-11
7.89388427e-11
7.96674125e-11
8.0403718e-11
8.11249118e-11
8.18087736e-11
8.24370977e-11
8.29974406e-11
8.34834532e-11
8.38941985e-11
8.42329313e-11
8.45056089e-11
8.4719095e-11
8.48782112e-11
8.49791754e-11
2.37541705e-05
1.85783685e-05
1.55354283e-05
1.35328915e-05
1.20840696e-05
1.10900936e-05
1.25073786e-05
1.64494333e-05
2.15061239e-05
2.64932993e-05
3.07321147e-05
3.39363857e-05
3.62606736e-05
3.81909351e-05
4.02530129e-05
4.27757746e-05
4.5825907e-05
4.92516006e-05
5.27538025e-05
5.60454151e-05
5.89748348e-05
6.15538533e-05
6.3920632e-05
6.62592944e-05
6.87367225e-05
7.14410518e-05
7.43647868e-05
7.73945892e-05
8.03927239e-05
8.32366324e-05
8.58557664e-05
8.82421284e-05
9.04404602e-05
9.25205911e-05
9.45476273e-05
9.65606551e-05
9.8564716e-05
0.000100541301
0.000102463329
0.000104311396
0.000106081391
0.000107784174
0.00010944078
0.000111071991
0.000112706288
0.000114359474
0.000116036631
0.000117733747
0.000119444689
0.00012116645
0.00012290131
0.000124656185
0.000126439118
0.000128256872
0.000130111008
0.000131999639
0.000133917756
0.000135860973
0.000137827385
0.000139818297
0.000141840089
0.000143906107
0.000146034127
0.000148237723
0.000150529125
0.00015291636
0.000155405717
0.00015800245
0.000160711711
0.000163535896
0.000166476214
0.000169530725
0.000172696438
0.000175969584
0.000179347487
0.00018283057
0.000186420764
0.000190123525
0.000193944939
0.000197892102
0.000201971208
0.000206186604
0.000210540588
0.000215034321
0.000219667754
0.000224442386
0.000229359242
0.000234421633
0.000239635289
0.00024500795
0.000250549597
0.000256271888
0.000262188159
0.000268313199
0.000274663231
0.000281255666
0.000288109371
0.000295247078
0.00030268949
0.000310464047
0.000318599649
0.000327127666
0.000336082166
0.00034549431
0.000355379035
0.000365762473
0.000376697706
0.000388255182
0.000400508505
0.000413520571
0.000427318328
0.000441951836
0.000457453211
0.000473808633
0.000490903003
0.000508442678
0.000525972033
0.000542698936
0.000557382508
0.000568238164
0.000573111831
0.000569662941
0.000555941946
0.000531011916
0.000495865453
0.000452965202
0.000405832073
0.000357465572
0.000310515286
0.000266801315
0.000227304432
0.000192251206
0.000161800814
0.000135613214
0.000113094611
9.3902552e-05
7.75195937e-05
6.35228816e-05
5.14327788e-05
4.08952832e-05
3.17103708e-05
2.38852531e-05
1.75540572e-05
1.27374752e-05
9.20437818e-06
6.64881869e-06
4.80859204e-06
3.48462024e-06
2.53236566e-06
1.84744016e-06
1.35152605e-06
9.91210557e-07
7.29861445e-07
5.37328692e-07
3.9590122e-07
2.92045979e-07
2.15745691e-07
1.59639003e-07
1.1834168e-07
8.78971647e-08
6.54157609e-08
4.87892795e-08
3.64718784e-08
2.73311431e-08
2.05351375e-08
1.54686349e-08
1.16744761e-08
8.82172415e-09
6.6734134e-09
5.05374363e-09
3.83173083e-09
2.9097067e-09
2.21384928e-09
1.68823133e-09
1.28977388e-09
9.87642419e-10
7.58207651e-10
5.83734948e-10
4.50899247e-10
3.49691888e-10
2.72609571e-10
2.13857804e-10
1.68970008e-10
1.34582582e-10
1.08161866e-10
8.77994364e-11
7.20565981e-11
5.98470191e-11
5.03492453e-11
4.29438971e-11
3.71624729e-11
3.26518846e-11
2.91421886e-11
2.64281043e-11
2.43519085e-11
2.27918444e-11
2.16602207e-11
2.08826742e-11
2.04010781e-11
2.01716368e-11
2.01526185e-11
2.03225373e-11
2.0664103e-11
2.11551881e-11
2.17837735e-11
2.25211646e-11
2.33832469e-11
2.43394257e-11
2.53701216e-11
2.64774266e-11
2.76305665e-11
2.88332426e-11
3.00574459e-11
3.13039888e-11
3.25558221e-11
3.38067586e-11
3.50505437e-11
3.62620758e-11
3.74685784e-11
3.86862712e-11
3.9924542e-11
4.11803029e-11
4.2448446e-11
4.37254095e-11
4.49930504e-11
4.62373623e-11
4.74483911e-11
4.86216891e-11
4.97643595e-11
5.08926697e-11
5.20277149e-11
5.3190839e-11
5.43993726e-11
5.56632584e-11
5.69844651e-11
5.83605591e-11
5.97965218e-11
6.13728295e-11
6.27442329e-11
6.41458495e-11
6.55224149e-11
6.68473626e-11
6.810497e-11
6.92859403e-11
7.03846515e-11
7.13981396e-11
7.23259807e-11
7.31705739e-11
7.39376077e-11
7.46365858e-11
7.52812509e-11
7.5889612e-11
7.64831272e-11
7.70845828e-11
7.77147247e-11
7.83846917e-11
7.90812899e-11
7.98021137e-11
8.05296477e-11
8.12416916e-11
8.19165448e-11
8.25363836e-11
8.3089009e-11
8.35681964e-11
8.39730413e-11
8.43067725e-11
8.45752878e-11
8.47853966e-11
8.49419243e-11
8.50413679e-11
1.51220507e-22
1.18485428e-22
8.17484514e-23
5.5965684e-23
3.72866218e-23
2.5497232e-23
1.67514298e-23
1.09702019e-23
7.68783657e-24
5.7500246e-24
4.18789004e-24
3.19068919e-24
2.35236904e-24
1.87482684e-24
1.44197449e-24
1.203096e-24
1.13345355e-24
1.00345731e-24
8.60424499e-25
7.42105941e-25
6.81745965e-25
6.13315337e-25
5.25271987e-25
4.89164586e-25
4.54731917e-25
4.51760468e-25
4.20840124e-25
4.05280223e-25
3.87516179e-25
4.72142671e-25
8.81952659e-24
6.03467151e-22
4.23639503e-20
2.99002518e-18
2.12375122e-16
1.52154153e-14
1.10746803e-12
8.27823162e-11
6.57452765e-09
5.68107094e-07
5.7193388e-23
6.85030937e-23
5.96355462e-23
4.7827943e-23
3.67987938e-23
2.72750534e-23
1.96769002e-23
1.51253038e-23
1.17979931e-23
8.87672616e-24
6.75169437e-24
5.14596523e-24
4.272058e-24
3.14701419e-24
2.45160883e-24
2.02237622e-24
1.81740121e-24
1.48809639e-24
1.26326338e-24
1.12074557e-24
9.69846844e-25
8.51043239e-25
7.25700298e-25
7.25719904e-25
6.11948046e-25
5.62264495e-25
5.2441123e-25
4.97920992e-25
4.55685476e-25
4.55179624e-25
1.82663402e-24
1.00097329e-22
6.97044169e-21
4.88164857e-19
3.41809135e-17
2.38888002e-15
1.66400111e-13
1.15063622e-11
7.83232863e-10
5.03829169e-08
7.93770459e-24
1.43372965e-23
2.03220721e-23
2.36148893e-23
2.395413e-23
2.21848004e-23
1.88849173e-23
1.60901636e-23
1.35998803e-23
1.14400849e-23
9.34198989e-24
7.45883651e-24
6.10108995e-24
4.99712093e-24
4.29186871e-24
3.53498013e-24
2.93798266e-24
2.4567384e-24
2.02298636e-24
1.7912877e-24
1.55065787e-24
1.43655912e-24
1.21888793e-24
1.02308163e-24
9.1262165e-25
8.2389553e-25
7.56484943e-25
6.80997977e-25
6.106111e-25
5.66427996e-25
7.70644505e-25
1.81319519e-23
1.2187477e-21
8.29658813e-20
5.57382754e-18
3.671419e-16
2.34727045e-14
1.43591981e-12
8.12706679e-11
4.01032312e-09
1.40035142e-24
3.41227349e-24
5.6618374e-24
7.98871268e-24
1.10663765e-23
1.30320031e-23
1.41693366e-23
1.37616914e-23
1.28036328e-23
1.10765554e-23
9.77951867e-24
8.343695e-24
7.06016249e-24
5.9486944e-24
5.14595708e-24
4.27224086e-24
3.62837103e-24
3.18116599e-24
2.74807482e-24
2.33976641e-24
1.99556118e-24
1.7461724e-24
1.447949e-24
1.21417417e-24
1.07872614e-24
9.75805336e-25
8.6329984e-25
7.84885179e-25
6.95332102e-25