/*--------------------------------*- C++ -*----------------------------------*\
  =========                 |
  \\      /  F ield         | OpenFOAM: The Open Source CFD Toolbox
   \\    /   O peration     | Website:  https://openfoam.org
    \\  /    A nd           | Version:  6
     \\/     M anipulation  |
\*---------------------------------------------------------------------------*/
FoamFile
{
    version     2.0;
    format      ascii;
    class       volScalarField;
    location    "25000";
    object      CH2OH;
}
// * * * * * * * * * * * * * * * * * * * * * * * * * * * * * * * * * * * * * //

dimensions      [0 0 0 0 0 0 0];

internalField   nonuniform List<scalar> 
44870
(
2.3041147e-93
6.49773861e-93
1.29665146e-92
2.20096909e-92
3.38830937e-92
4.87872611e-92
6.69280858e-92
8.84707274e-92
1.13671634e-91
1.52694035e-91
2.16862855e-90
3.98632227e-88
8.12377464e-86
1.69181374e-83
3.60365226e-81
7.85842609e-79
1.75642574e-76
4.0260124e-74
9.47215112e-72
2.28796096e-69
5.67729864e-67
1.44703707e-64
3.79005708e-62
1.01964374e-59
2.81830162e-57
7.99694681e-55
2.32935925e-52
6.95684666e-50
2.12936464e-47
6.66779748e-45
2.13356474e-42
6.95625031e-40
2.3050127e-37
7.72215809e-35
2.60023257e-32
8.70556413e-30
2.85516252e-27
8.92696773e-25
2.5254469e-22
5.88598688e-20
2.30650169e-93
6.51120646e-93
1.30314754e-92
2.22195298e-92
3.44129625e-92
4.99068785e-92
6.90296877e-92
9.20657269e-92
1.19372652e-91
1.52913559e-91
5.01401488e-91
5.91806994e-89
1.13863209e-86
2.26457067e-84
4.64905357e-82
9.87920159e-80
2.17878941e-77
5.00068818e-75
1.19785776e-72
3.00197238e-70
7.89140143e-68
2.17933987e-65
6.33264337e-63
1.93609641e-60
6.22785073e-58
2.1042003e-55
7.45746619e-53
2.76481013e-50
1.07024746e-47
4.31218711e-45
1.80469418e-42
7.81699452e-40
3.49459578e-37
1.60358625e-34
7.51122757e-32
3.55370869e-29
1.67538091e-26
7.69240545e-24
3.27912559e-21
1.22369314e-18
2.33174676e-93
6.67862059e-93
1.36424713e-92
2.38327556e-92
3.79177187e-92
5.65461356e-92
8.04693397e-92
1.10352226e-91
1.47015508e-91
1.91198942e-91
2.56550245e-91
2.52263287e-90
3.91149974e-88
7.14521934e-86
1.35181711e-83
2.66963934e-81
5.48385173e-79
1.18162644e-76
2.66315743e-74
6.33009795e-72
1.58288038e-69
4.20350841e-67
1.18581232e-64
3.61666284e-62
1.21084335e-59
4.64239268e-57
2.10987804e-54
1.1673774e-51
7.63643337e-49
5.64999455e-46
4.47691197e-43
3.69535639e-40
3.08601361e-37
2.58845813e-34
2.13661171e-31
1.73453753e-28
1.35262099e-25
1.01316304e-22
6.90726976e-20
4.26629327e-17
2.63153826e-93
8.26753165e-93
1.84253251e-92
3.47807251e-92
5.90952005e-92
9.31975904e-92
1.38940665e-91
1.98095528e-91
2.72391874e-91
3.63349482e-91
4.72545414e-91
6.21863943e-91
4.12136867e-90
5.66213794e-88
9.86667278e-86
1.8188502e-83
3.5110877e-81
7.20015727e-79
1.56745622e-76
3.74838998e-74
1.06053004e-71
4.24220736e-69
2.66203816e-66
2.30181498e-63
2.28623136e-60
2.40083731e-57
2.58178533e-54
2.81904955e-51
3.09313158e-48
3.40483409e-45
3.7155571e-42
4.01796683e-39
4.24828688e-36
4.39551128e-33
4.38821923e-30
4.23221727e-27
3.88004612e-24
3.37686367e-21
2.69863023e-18
1.94157749e-15
7.09013152e-93
2.50499797e-92
5.51376046e-92
9.71992847e-92
1.50758482e-91
2.15220119e-91
2.90188681e-91
3.75320742e-91
4.70509309e-91
5.75693062e-91
6.90998579e-91
8.1667126e-91
9.70731251e-91
4.16328095e-90
5.98928025e-88
1.73397126e-85
9.64918763e-83
8.21095829e-80
7.93755907e-77
7.88256736e-74
7.86351772e-71
7.84202374e-68
7.81351388e-65
7.77642068e-62
7.73313244e-59
7.68461278e-56
7.63190199e-53
7.57548497e-50
7.51821386e-47
7.45790427e-44
7.39881503e-41
7.33783663e-38
7.27898096e-35
7.21882318e-32
7.16172163e-29
7.10488512e-26
7.05053901e-23
6.99772312e-20
6.94640739e-17
6.94045299e-14
4.84042804e-18
1.04568047e-17
1.41597579e-17
1.57014079e-17
1.55347235e-17
1.45479793e-17
1.40171123e-17
1.4707383e-17
1.64549011e-17
1.86340005e-17
2.05010893e-17
2.17811659e-17
2.27507883e-17
2.42153812e-17
2.68252487e-17
3.07807242e-17
3.58526581e-17
4.14279574e-17
4.71594805e-17
5.29591313e-17
5.97789953e-17
6.91178404e-17
8.27674552e-17
1.02393364e-16
1.29311039e-16
1.6467784e-16
2.08862008e-16
2.6442733e-16
3.32754996e-16
4.21916851e-16
5.4070978e-16
7.03602808e-16
9.29975436e-16
1.23799692e-15
1.65680942e-15
2.20710136e-15
2.9292553e-15
3.85851895e-15
5.06810871e-15
6.64745086e-15
8.74122647e-15
1.15317006e-14
1.52525329e-14
2.01708229e-14
2.66245398e-14
3.49383029e-14
4.55067228e-14
5.88501518e-14
7.57158485e-14
9.71883797e-14
1.24749049e-13
1.60335886e-13
2.06308465e-13
2.6549965e-13
3.41171146e-13
4.37228321e-13
5.58438923e-13
7.11063256e-13
9.03417016e-13
1.14648364e-12
1.45411085e-12
1.84259979e-12
2.33025334e-12
2.93661995e-12
3.68414791e-12
4.59833846e-12
5.71295235e-12
7.06942168e-12
8.72218668e-12
1.07343782e-11
1.31816469e-11
1.614999e-11
1.97355344e-11
2.40654653e-11
2.92740631e-11
3.55758545e-11
4.31649625e-11
5.23224354e-11
6.33354318e-11
7.65188371e-11
9.21872933e-11
1.10661909e-10
1.32302808e-10
1.57511824e-10
1.8679088e-10
2.20752643e-10
2.60263926e-10
3.06342266e-10
3.60297244e-10
4.23720514e-10
4.98420533e-10
5.86496243e-10
6.90208915e-10
8.12081981e-10
9.54969137e-10
1.12218523e-09
1.3176619e-09
1.54621195e-09
1.81378516e-09
2.12791621e-09
2.49797442e-09
2.93546633e-09
3.45455411e-09
4.07304913e-09
4.81304088e-09
5.70281533e-09
6.77775983e-09
8.0813242e-09
9.67038147e-09
1.16181406e-08
1.40230968e-08
1.70157807e-08
2.07690846e-08
2.55162435e-08
3.1572779e-08
3.93673377e-08
4.94745116e-08
6.26541951e-08
7.98943481e-08
1.02436767e-07
1.31716137e-07
1.69148707e-07
2.15657262e-07
2.70893446e-07
3.32354997e-07
3.95216721e-07
4.5329837e-07
5.0086141e-07
5.34137504e-07
5.51884057e-07
5.55001373e-07
5.45706135e-07
5.26787411e-07
5.01005026e-07
4.706856e-07
4.37688584e-07
4.03231281e-07
3.6796218e-07
3.31819256e-07
2.94045677e-07
2.55183098e-07
2.14101906e-07
1.69273628e-07
1.23574875e-07
8.56786367e-08
5.90269179e-08
4.11161528e-08
2.89333571e-08
2.0522793e-08
1.4653707e-08
1.05348605e-08
7.6426822e-09
5.59917624e-09
4.11826582e-09
3.03005101e-09
2.23326806e-09
1.65085484e-09
1.22477892e-09
9.12370658e-10
6.82295411e-10
5.1148989e-10
3.84310956e-10
2.89329005e-10
2.18189542e-10
1.64756093e-10
1.24485495e-10
9.40721322e-11
7.10933157e-11
5.37290156e-11
4.06079488e-11
3.06967834e-11
2.32153171e-11
1.75811551e-11
1.33365476e-11
1.01339578e-11
7.71229931e-12
5.87918211e-12
4.48962379e-12
3.43455628e-12
2.63210859e-12
2.02076056e-12
1.55421015e-12
1.19755644e-12
9.24462934e-13
7.15022098e-13
5.54140398e-13
4.30351908e-13
3.34955443e-13
2.61352223e-13
2.04511788e-13
1.60552219e-13
1.2655964e-13
1.00274226e-13
7.99597528e-14
6.42408779e-14
5.20503808e-14
4.25851898e-14
3.52671282e-14
2.96478923e-14
2.53412247e-14
2.20638418e-14
1.95883581e-14
1.77667439e-14
1.64546251e-14
1.55400289e-14
1.4928498e-14
1.45548002e-14
1.43573603e-14
1.42799769e-14
1.42848007e-14
1.43347113e-14
1.44126931e-14
1.44892829e-14
1.45559599e-14
1.45956874e-14
1.45993203e-14
1.45594791e-14
1.4457529e-14
1.43168142e-14
1.41487593e-14
1.39353096e-14
1.36826435e-14
1.33949993e-14
1.30747892e-14
1.27238851e-14
1.2345475e-14
1.19432423e-14
1.15213453e-14
1.10847534e-14
1.06395171e-14
1.0192104e-14
9.74839603e-15
9.31310296e-15
8.88941366e-15
8.47903262e-15
8.0827671e-15
7.70172112e-15
7.33555804e-15
6.97389492e-15
6.62161691e-15
6.27954004e-15
5.947247e-15
5.62446939e-15
5.31132354e-15
5.0081405e-15
4.71529106e-15
4.43309539e-15
4.16180715e-15
3.90164726e-15
3.65286578e-15
3.41581363e-15
3.19099905e-15
2.97909355e-15
2.78085472e-15
2.59692715e-15
2.42719453e-15
2.27241705e-15
2.13139625e-15
2.00295939e-15
1.88578578e-15
1.77849887e-15
1.67977629e-15
1.58842418e-15
1.50342648e-15
1.42399407e-15
1.34964869e-15
1.2804204e-15
1.21732056e-15
1.16349345e-15
1.12693709e-15
1.39848702e-16
2.22440378e-16
2.28559466e-16
2.00010834e-16
1.60894628e-16
1.33056993e-16
1.41953101e-16
1.84642361e-16
2.37114033e-16
2.78747651e-16
2.98667992e-16
3.03070095e-16
3.12581659e-16
3.50124498e-16
4.22158029e-16
5.18870214e-16
6.23911304e-16
7.20923413e-16
8.06871862e-16
8.93737807e-16
1.0181505e-15
1.21934246e-15
1.52558547e-15
1.95361444e-15
2.49841323e-15
3.16575296e-15
3.94227918e-15
4.85784682e-15
5.95789659e-15
7.37535888e-15
9.26421974e-15
1.18162153e-14
1.52007646e-14
1.95542835e-14
2.49895802e-14
3.1556002e-14
3.93829992e-14
4.86678791e-14
5.99338788e-14
7.38476137e-14
9.13719047e-14
1.13393808e-13
1.40844589e-13
1.74357301e-13
2.14583585e-13
2.61799952e-13
3.16716534e-13
3.81004332e-13
4.5767197e-13
5.5101705e-13
6.66144122e-13
8.0844649e-13
9.8307432e-13
1.19487918e-12
1.44856827e-12
1.74984982e-12
2.10693479e-12
2.53260122e-12
3.0449642e-12
3.66724572e-12
4.42566454e-12
5.34662972e-12
6.45454549e-12
7.77317029e-12
9.33010022e-12
1.11593774e-11
1.33106238e-11
1.58440616e-11
1.88348451e-11
2.23634902e-11
2.65212675e-11
3.14091095e-11
3.71436837e-11
4.38898517e-11
5.18306378e-11
6.12567003e-11
7.24227582e-11
8.56801893e-11
1.01358782e-10
1.19803661e-10
1.41328841e-10
1.6625863e-10
1.94969894e-10
2.2789958e-10
2.65625322e-10
3.0889287e-10
3.58757151e-10
4.16465728e-10
4.8357982e-10
5.6197899e-10
6.5370201e-10
7.61037346e-10
8.86454542e-10
1.03267332e-09
1.20277761e-09
1.4003705e-09
1.62975835e-09
1.89624992e-09
2.20643714e-09
2.56870651e-09
2.99338051e-09
3.49309127e-09
4.08336665e-09
4.78370418e-09
5.61828905e-09
6.6180531e-09
7.82114993e-09
9.27425058e-09
1.10383642e-08
1.31919727e-08
1.58403033e-08
1.91220853e-08
2.3220351e-08
2.8379807e-08
3.49296944e-08
4.33152127e-08
5.41266799e-08
6.81359224e-08
8.63347147e-08
1.09952427e-07
1.40371783e-07
1.78898026e-07
2.26274098e-07
2.81928561e-07
3.43153549e-07
4.05058978e-07
4.61596026e-07
5.07300429e-07
5.38694389e-07
5.54744992e-07
5.56456966e-07
5.46059336e-07
5.26315056e-07
4.99931086e-07
4.69154731e-07
4.35799007e-07
4.01008642e-07
3.65381432e-07
3.28776854e-07
2.90780101e-07
2.51693162e-07
2.10302609e-07
1.65213896e-07
1.20231922e-07
8.35505612e-08
5.77888777e-08
4.03793795e-08
2.84774761e-08
2.02325274e-08
1.44650677e-08
1.04117586e-08
7.56361527e-09
5.54450164e-09
4.07767958e-09
3.00057742e-09
2.21238024e-09
1.63607915e-09
1.21429983e-09
9.04917323e-10
6.77042009e-10
5.07820681e-10
3.81729671e-10
2.87497374e-10
2.16879121e-10
1.63814574e-10
1.23809207e-10
9.3583358e-11
7.07381641e-11
5.34699574e-11
4.04184541e-11
3.05579141e-11
2.31133936e-11
1.7506002e-11
1.32812887e-11
1.00932989e-11
7.68220484e-12
5.85695056e-12
4.47319181e-12
3.42239252e-12
2.6230897e-12
2.01406352e-12
1.54922984e-12
1.19384597e-12
9.21693602e-13
7.12954407e-13
5.52598e-13
4.29200567e-13
3.34093536e-13
2.60708163e-13
2.04036752e-13
1.60201752e-13
1.26308355e-13
1.00091659e-13
7.98315365e-14
6.4157768e-14
5.2000423e-14
4.25571591e-14
3.52548942e-14
2.9651773e-14
2.53586107e-14
2.20906535e-14
1.96203325e-14
1.78027406e-14
1.64951466e-14
1.55834991e-14
1.4973313e-14
1.45998111e-14
1.44024059e-14
1.4324456e-14
1.43279926e-14
1.43765217e-14
1.44530331e-14
1.45281257e-14
1.45928391e-14
1.46304227e-14
1.46320792e-14
1.45904286e-14
1.44857636e-14
1.434315e-14
1.41738267e-14
1.39579138e-14
1.37029349e-14
1.34131347e-14
1.3090944e-14
1.27381768e-14
1.23580098e-14
1.19542021e-14
1.15309501e-14
1.10931613e-14
1.06468118e-14
1.01983466e-14
9.75362906e-15
9.31734158e-15
8.89266142e-15
8.48131093e-15
8.08412881e-15
7.70226727e-15
7.33581717e-15
6.97323046e-15
6.62037466e-15
6.27792427e-15
5.94536017e-15
5.62238923e-15
5.30912103e-15
5.00587873e-15
4.71302252e-15
4.43086147e-15
4.15963946e-15
3.89956947e-15
3.65089521e-15
3.41396229e-15
3.18927396e-15
2.97749678e-15
2.77938323e-15
2.59557203e-15
2.42592682e-15
2.27127549e-15
2.130335e-15
2.00197108e-15
1.8848638e-15
1.77763721e-15
1.67896978e-15
1.58766823e-15
1.50271682e-15
1.42332673e-15
1.34902033e-15
1.27982803e-15
1.21676116e-15
1.16296277e-15
1.12642552e-15
8.04177267e-15
8.9384214e-15
6.61795697e-15
4.36041816e-15
2.74310267e-15
2.53553891e-15
4.77181726e-15
7.82634137e-15
9.91654698e-15
1.0522481e-14
9.95125492e-15
9.15770467e-15
9.55329122e-15
1.17152566e-14
1.49937812e-14
1.82958443e-14
2.08164583e-14
2.23017052e-14
2.30619265e-14
2.42425308e-14
2.73057801e-14
3.30282649e-14
4.124539e-14
5.12833557e-14
6.23674118e-14
7.40249613e-14
8.58851215e-14
9.85428075e-14
1.13574709e-13
1.33582489e-13
1.60846295e-13
1.96817759e-13
2.41635264e-13
2.9455479e-13
3.5419441e-13
4.19166741e-13
4.89747246e-13
5.69056147e-13
6.63581762e-13
7.8018344e-13
9.25173289e-13
1.10114604e-12
1.3088171e-12
1.54516785e-12
1.80680218e-12
2.08967282e-12
2.39751141e-12
2.74451798e-12
3.15275816e-12
3.64579051e-12
4.24230418e-12
4.9531224e-12
5.78118405e-12
6.72469127e-12
7.78215203e-12
8.96111393e-12
1.02871144e-11
1.18079762e-11
1.35871305e-11
1.56915289e-11
1.81768094e-11
2.10762524e-11
2.44017956e-11
2.81689862e-11
3.24118786e-11
3.71955826e-11
4.26258529e-11
4.88151993e-11
5.58829884e-11
6.39341475e-11
7.30779299e-11
8.34418794e-11
9.52038199e-11
1.08653902e-10
1.24137831e-10
1.42162808e-10
1.63140582e-10
1.87564176e-10
2.15816779e-10
2.48251476e-10
2.85138767e-10
3.26780606e-10
3.73579546e-10
4.26082183e-10
4.8509422e-10
5.51750354e-10
6.27597904e-10
7.14517729e-10
8.14683274e-10
9.30546296e-10
1.06468029e-09
1.21979626e-09
1.39874687e-09
1.60466616e-09
1.84116117e-09
2.11251276e-09
2.42392717e-09
2.78190896e-09
3.19460604e-09
3.67243459e-09
4.22792869e-09
4.87636337e-09
5.63645724e-09
6.53163466e-09
7.59108837e-09
8.85178999e-09
1.03580911e-08
1.21640295e-08
1.43397412e-08
1.69757364e-08
2.01926518e-08
2.41480392e-08
2.90462328e-08
3.51566454e-08
4.28379158e-08
5.25702217e-08
6.49739291e-08
8.08396733e-08
1.01157061e-07
1.2711471e-07
1.59959917e-07
2.00734176e-07
2.49780485e-07
3.06065518e-07
3.66482774e-07
4.26067121e-07
4.79098736e-07
5.20715007e-07
5.48039224e-07
5.60460251e-07
5.5918134e-07
5.46439573e-07
5.24940667e-07
4.97275938e-07
4.6551141e-07
4.31373163e-07
3.95836175e-07
3.59395953e-07
3.21711077e-07
2.83347508e-07
2.43850923e-07
2.01481381e-07
1.56384793e-07
1.13253105e-07
7.91412894e-08
5.52084104e-08
3.88259982e-08
2.75086882e-08
1.96125201e-08
1.40606323e-08
1.01474718e-08
7.38992243e-09
5.42468394e-09
3.98936175e-09
2.93734463e-09
2.16760302e-09
1.6043584e-09
1.19175805e-09
8.88852456e-10
6.65656469e-10
4.99859435e-10
3.76123425e-10
2.8351537e-10
2.14027521e-10
1.61762738e-10
1.22333408e-10
9.25164483e-11
6.99627068e-11
5.29041533e-11
4.0004518e-11
3.02545291e-11
2.28907071e-11
1.73418215e-11
1.31605874e-11
1.00044895e-11
7.61641457e-12
5.80836417e-12
4.43727675e-12
3.39580314e-12
2.60337216e-12
1.99941827e-12
1.53833549e-12
1.18573011e-12
9.15639303e-13
7.08433301e-13
5.49220665e-13
4.26678368e-13
3.32211381e-13
2.5930625e-13
2.02998359e-13
1.59449592e-13
1.25757424e-13
9.96995098e-14
7.95570631e-14
6.39738696e-14
5.18858609e-14
4.2496723e-14
3.52346657e-14
2.96633785e-14
2.53949718e-14
2.21470795e-14
1.96918277e-14
1.78846376e-14
1.65849337e-14
1.5678367e-14
1.5071174e-14
1.46991147e-14
1.45016268e-14
1.44220256e-14
1.44227659e-14
1.44681425e-14
1.45413865e-14
1.46129826e-14
1.46734934e-14
1.47064155e-14
1.47035954e-14
1.46580424e-14
1.45527407e-14
1.44058535e-14
1.42281042e-14
1.40070833e-14
1.37472303e-14
1.34526724e-14
1.31259964e-14
1.27691125e-14
1.23851985e-14
1.19780065e-14
1.15517333e-14
1.11112651e-14
1.066249e-14
1.02117528e-14
9.76483804e-15
9.32638013e-15
8.89955208e-15
8.48611283e-15
8.08695661e-15
7.7033501e-15
7.33631091e-15
6.9716725e-15
6.61758845e-15
6.27434118e-15
5.94119339e-15
5.61780496e-15
5.30427343e-15
5.000905e-15
4.70803667e-15
4.42595345e-15
4.15487793e-15
3.8950057e-15
3.64656654e-15
3.40989437e-15
3.18548172e-15
2.9739845e-15
2.77614435e-15
2.59258632e-15
2.4232386e-15
2.26876588e-15
2.12799844e-15
1.99979601e-15
1.88283579e-15
1.77574302e-15
1.67719772e-15
1.58600784e-15
1.50115862e-15
1.42186216e-15
1.34764178e-15
1.27852867e-15
1.21553415e-15
1.16179875e-15
1.12530454e-15
6.71539283e-13
4.85326647e-13
2.61832699e-13
1.32153384e-13
6.83924631e-14
1.20387859e-13
3.35112938e-13
4.90545965e-13
5.09158211e-13
4.38671693e-13
3.41776807e-13
2.79856291e-13
3.11841665e-13
4.10402601e-13
5.06503568e-13
5.55978015e-13
5.53174124e-13
5.16337779e-13
4.71377711e-13
4.65334167e-13
5.27444797e-13
6.45490407e-13
7.87178831e-13
9.24869315e-13
1.04643374e-12
1.14903164e-12
1.23511634e-12
1.32734935e-12
1.4648481e-12
1.68452938e-12
1.99839722e-12
2.39418887e-12
2.84463379e-12
3.32068531e-12
3.79733945e-12
4.261128e-12
4.73174021e-12
5.26807958e-12
5.94213781e-12
6.79802576e-12
7.8429681e-12
9.04345226e-12
1.03552218e-11
1.17210693e-11
1.30894467e-11
1.44399207e-11
1.58460778e-11
1.74523542e-11
1.9404595e-11
2.17891444e-11
2.46125668e-11
2.78192617e-11
3.13235285e-11
3.50440607e-11
3.89393644e-11
4.30529555e-11
4.7541414e-11
5.26416566e-11
5.85874191e-11
6.55332386e-11
7.35138395e-11
8.24294552e-11
9.21369946e-11
1.02593059e-10
1.13888611e-10
1.26235362e-10
1.39907145e-10
1.55105371e-10
1.71969782e-10
1.90561541e-10
2.1096012e-10
2.33349892e-10
2.58119363e-10
2.85957858e-10
3.17672377e-10
3.54240571e-10
3.96321817e-10
4.44501588e-10
4.99049933e-10
5.60110601e-10
6.27777146e-10
7.02229504e-10
7.83914904e-10
8.73710002e-10
9.73003469e-10
1.08384326e-09
1.20884517e-09
1.35104527e-09
1.51370985e-09
1.70018214e-09
1.91371577e-09
2.1575324e-09
2.43494165e-09
2.74967359e-09
3.10619628e-09
3.50997226e-09
3.96781599e-09
4.48837468e-09
5.08259587e-09
5.76437777e-09
6.54995958e-09
7.45912218e-09
8.51594275e-09
9.75043409e-09
1.12006937e-08
1.29131544e-08
1.49419955e-08
1.73529718e-08
2.0230334e-08
2.36837298e-08
2.78599914e-08
3.29444788e-08
3.91722975e-08
4.68484095e-08
5.63726001e-08
6.82736943e-08
8.32028103e-08
1.01956586e-07
1.25490817e-07
1.54896332e-07
1.91157635e-07
2.34871797e-07
2.85780044e-07
3.42245787e-07
4.00697678e-07
4.56222846e-07
5.03683434e-07
5.39113559e-07
5.60449404e-07
5.67617662e-07
5.62050639e-07
5.45948358e-07
5.21937026e-07
4.92432935e-07
4.59201869e-07
4.23887797e-07
3.87169134e-07
3.49422785e-07
3.1086164e-07
2.71910763e-07
2.31090259e-07
1.87763409e-07
1.43490092e-07
1.03648814e-07
7.31679848e-08
5.16375324e-08
3.66329655e-08
2.61231986e-08
1.87181492e-08
1.34734218e-08
9.76324015e-09
7.12558639e-09
5.24232253e-09
3.86042573e-09
2.84569776e-09
2.10263616e-09
1.55819967e-09
1.15883742e-09
8.6530974e-10
6.48834621e-10
4.88057597e-10
3.67797424e-10
2.77591066e-10
2.09777763e-10
1.58696665e-10
1.20122927e-10
9.0917804e-11
6.88001314e-11
5.20554287e-11
3.93834209e-11
2.97992051e-11
2.25564467e-11
1.7095419e-11
1.29794885e-11
9.87054372e-12
7.51756495e-12
5.73539488e-12
4.3833261e-12
3.35585033e-12
2.57373615e-12
1.97739831e-12
1.52195013e-12
1.17352325e-12
9.06534455e-13
7.01631756e-13
5.4413513e-13
4.228807e-13
3.29383679e-13
2.57203466e-13
2.01435927e-13
1.58303684e-13
1.24932415e-13
9.91182831e-14
7.91507076e-14
6.36957476e-14
5.1710411e-14
4.2409151e-14
3.52120541e-14
2.96849757e-14
2.54494851e-14
2.22314121e-14
1.98025885e-14
1.80121234e-14
1.67222017e-14
1.58221095e-14
1.52192808e-14
1.48503383e-14
1.46520817e-14
1.45695008e-14
1.45661286e-14
1.46065546e-14
1.46747442e-14
1.47404458e-14
1.47947206e-14
1.4820723e-14
1.48109788e-14
1.4759202e-14
1.46515422e-14
1.44989033e-14
1.4309421e-14
1.40805263e-14
1.38134748e-14
1.35117071e-14
1.31781789e-14
1.28150682e-14
1.2425614e-14
1.20133932e-14
1.15825161e-14
1.11379437e-14
1.06855097e-14
1.02313805e-14
9.78118014e-15
9.33947643e-15
8.90945408e-15
8.49292524e-15
8.09085075e-15
7.70464923e-15
7.33692396e-15
6.96903389e-15
6.61319167e-15
6.26879377e-15
5.93479015e-15
5.61078818e-15
5.29687291e-15
4.99332569e-15
4.70044847e-15
4.41849027e-15
4.14764195e-15
3.88807305e-15
3.63999243e-15
3.40371657e-15
3.17972202e-15
2.96864896e-15
2.77122318e-15
2.58805303e-15
2.41915117e-15
2.26494801e-15
2.12444882e-15
1.99649364e-15
1.8797581e-15
1.77286963e-15
1.67451045e-15
1.58349046e-15
1.49879669e-15
1.41964272e-15
1.34555312e-15
1.27656015e-15
1.21367523e-15
1.16003524e-15
1.12360708e-15
7.17913023e-11
2.54845832e-11
8.21388017e-12
2.93277886e-12
1.29445829e-12
7.14295768e-12
2.0677764e-11
2.34293261e-11
1.84447595e-11
1.21806737e-11
7.45134859e-12
5.77236791e-12
8.13472462e-12
1.12914007e-11
1.26297432e-11
1.19129135e-11
1.00913881e-11
8.1230798e-12
6.63838035e-12
6.73366134e-12
8.37521559e-12
1.0538359e-11
1.23615581e-11
1.35704921e-11
1.42662025e-11
1.45903325e-11
1.4692541e-11
1.50912472e-11
1.63784863e-11
1.87809423e-11
2.20281502e-11
2.56352268e-11
2.91600262e-11
3.23210531e-11
3.49780102e-11
3.71651326e-11
3.93491398e-11
4.22873512e-11
4.649096e-11
5.19368677e-11
5.82266824e-11
6.48050292e-11
7.1233655e-11
7.71547915e-11
8.22610251e-11
8.67552141e-11
9.15985898e-11
9.78884492e-11
1.06213156e-10
1.16473627e-10
1.28098764e-10
1.40379875e-10
1.52710503e-10
1.64723526e-10
1.7641312e-10
1.8830513e-10
2.01422025e-10
2.1683725e-10
2.35178838e-10
2.56427749e-10
2.80016195e-10
3.04901658e-10
3.30348689e-10
3.56369696e-10
3.83659644e-10
4.13056616e-10
4.45197019e-10
4.8025153e-10
5.18089484e-10
5.58416804e-10
6.0119855e-10
6.46949737e-10
6.96911037e-10
7.53047863e-10
8.17332774e-10
8.91518337e-10
9.76302989e-10
1.07177163e-09
1.17738389e-09
1.29250356e-09
1.41667796e-09
1.54990781e-09
1.69295076e-09
1.84764518e-09
2.01686493e-09
2.20470559e-09
2.41587331e-09
2.65537251e-09
2.92806448e-09
3.23829172e-09
3.58981837e-09
3.98614371e-09
4.43093438e-09
4.92870349e-09
5.48528026e-09
6.10812109e-09
6.80674559e-09
7.59342215e-09
8.48383476e-09
9.49693112e-09
1.06549838e-08
1.19846961e-08
1.3518205e-08
1.52955946e-08
1.73697601e-08
1.97999191e-08
2.26535447e-08
2.60123219e-08
2.99805081e-08
3.46947736e-08
4.03407995e-08
4.7138761e-08
5.53597935e-08
6.53502033e-08
7.75553018e-08
9.2558779e-08
1.11015988e-07
1.33682814e-07
1.61408941e-07
1.95093895e-07
2.3526863e-07
2.8188969e-07
3.33957785e-07
3.89264646e-07
4.43846993e-07
4.93121311e-07
5.32812116e-07
5.60095329e-07
5.73806948e-07
5.74420505e-07
5.63562639e-07
5.43298527e-07
5.1618477e-07
4.84399496e-07
4.49238389e-07
4.12364922e-07
3.73948137e-07
3.35385967e-07
2.95782708e-07
2.55319377e-07
2.13015385e-07
1.69429355e-07
1.27688601e-07
9.26007017e-08
6.62959806e-08
4.74098913e-08
3.39725722e-08
2.44155792e-08
1.7603569e-08
1.27351036e-08
9.25633098e-09
6.76756514e-09
5.00422616e-09
3.69640775e-09
2.73113462e-09
2.02113308e-09
1.4999939e-09
1.1171117e-09
8.3533134e-10
6.27290283e-10
4.72791036e-10
3.57002494e-10
2.69890564e-10
2.04240653e-10
1.54691653e-10
1.17224024e-10
8.88196339e-11
6.72729522e-11
5.09397144e-11
3.85665276e-11
2.92001317e-11
2.21165554e-11
1.67712018e-11
1.27412975e-11
9.69401931e-12
7.38743523e-12
5.63929361e-12
4.31224393e-12
3.30319012e-12
2.53465883e-12
1.94835076e-12
1.50032638e-12
1.15741062e-12
8.94516637e-13
6.92652043e-13
5.37416147e-13
4.17862643e-13
3.256533e-13
2.54434473e-13
1.99375966e-13
1.56784797e-13
1.23846735e-13
9.83605658e-14
7.86234953e-14
6.33312746e-14
5.14787097e-14
4.2298515e-14
3.51914584e-14
2.97200781e-14
2.5525181e-14
2.23451683e-14
1.99539376e-14
1.81858515e-14
1.69070009e-14
1.60146895e-14
1.54174554e-14
1.50528309e-14
1.48523716e-14
1.47651375e-14
1.47564906e-14
1.479044e-14
1.48512917e-14
1.49083649e-14
1.49541813e-14
1.49712363e-14
1.49523014e-14
1.48917607e-14
1.47773122e-14
1.46165169e-14
1.4415297e-14
1.41763439e-14
1.38999175e-14
1.35886011e-14
1.32459779e-14
1.2874658e-14
1.24779815e-14
1.20591831e-14
1.16221937e-14
1.11721449e-14
1.07148713e-14
1.02562856e-14
9.80177589e-15
9.35583309e-15
8.92166767e-15
8.50115378e-15
8.09531773e-15
7.70570364e-15
7.33753735e-15
6.96496626e-15
6.60699718e-15
6.26116648e-15
5.92607266e-15
5.60128772e-15
5.28688934e-15
4.98312698e-15
4.69025614e-15
4.40847854e-15
4.13794359e-15
3.87878684e-15
3.63118986e-15
3.39544635e-15
3.17201213e-15
2.96150689e-15
2.7646361e-15
2.58198897e-15
2.41362804e-15
2.25983232e-15
2.11970127e-15
1.9920801e-15
1.87564699e-15
1.76903306e-15
1.67092352e-15
1.58013093e-15
1.495645e-15
1.4166816e-15
1.34276666e-15
1.27393389e-15
1.21119498e-15
1.15768211e-15
1.12134222e-15
7.32247629e-09
1.11970989e-09
1.96926793e-10
5.03265852e-11
1.83538279e-11
3.90710234e-10
9.46703767e-10
7.58585829e-10
4.28122417e-10
2.09604246e-10
1.00237572e-10
8.92999528e-11
1.66200049e-10
2.13982156e-10
2.02096911e-10
1.59090403e-10
1.14502621e-10
8.11718306e-11
6.22765492e-11
7.13952837e-11
9.5653023e-11
1.15510262e-10
1.24199418e-10
1.24634252e-10
1.20997582e-10
1.15455263e-10
1.0930738e-10
1.08654664e-10
1.17286175e-10
1.33714097e-10
1.52801869e-10
1.70154166e-10
1.83540831e-10
1.92458859e-10
1.97231653e-10
1.99161513e-10
2.02629956e-10
2.12326551e-10
2.29091469e-10
2.50238056e-10
2.72174992e-10
2.92041159e-10
3.08457728e-10
3.20759314e-10
3.28005258e-10
3.33062447e-10
3.41768832e-10
3.58104542e-10
3.82092425e-10
4.10947616e-10
4.41184406e-10
4.70066792e-10
4.96045516e-10
5.18760465e-10
5.39225195e-10
5.60282634e-10
5.85830554e-10
6.18623162e-10
6.58955582e-10
7.0497977e-10
7.53799615e-10
8.01685139e-10
8.47393868e-10
8.92398295e-10
9.39494861e-10
9.90780713e-10
1.04696879e-09
1.10738317e-09
1.17088569e-09
1.23641102e-09
1.30406258e-09
1.37555992e-09
1.45425012e-09
1.54454007e-09
1.64994263e-09
1.77243637e-09
1.91161551e-09
2.06573795e-09
2.23250958e-09
2.41005646e-09
2.59731064e-09
2.79439533e-09
3.00300661e-09
3.22682919e-09
3.47117559e-09
3.74296315e-09
4.04939339e-09
4.39744439e-09
4.7931003e-09
5.24089509e-09
5.74425971e-09
6.3063173e-09
6.93078733e-09
7.62289614e-09
8.38998789e-09
9.24184889e-09
1.01909156e-08
1.12535655e-08
1.24500693e-08
1.38043831e-08
1.53448596e-08
1.71047364e-08
1.91236824e-08
2.14514896e-08
2.41570743e-08
2.73095268e-08
3.09856951e-08
3.5280295e-08
4.03148361e-08
4.62493217e-08
5.33062291e-08
6.17267497e-08
7.1802827e-08
8.39050734e-08
9.85016886e-08
1.16209447e-07
1.37633064e-07
1.63437789e-07
1.94322451e-07
2.30987871e-07
2.73496668e-07
3.2129124e-07
3.72895472e-07
4.25924325e-07
4.7624071e-07
5.19742426e-07
5.52871284e-07
5.73673981e-07
5.81529852e-07
5.77213855e-07
5.62423217e-07
5.39024465e-07
5.0959363e-07
4.76093559e-07
4.39322077e-07
4.01169845e-07
3.62014881e-07
3.22751433e-07
2.82375425e-07
2.40914638e-07
1.97976684e-07
1.5531348e-07
1.16567721e-07
8.5125745e-08
6.15423087e-08
4.43847775e-08
3.20234173e-08
2.31428902e-08
1.67623427e-08
1.2172589e-08
8.8725746e-09
6.50084373e-09
4.82102743e-09
3.57034168e-09
2.64354557e-09
1.95913064e-09
1.45540555e-09
1.08494673e-09
8.12090735e-10
6.10489583e-10
4.60736302e-10
3.48452714e-10
2.63770315e-10
1.99826274e-10
1.51489902e-10
1.14898041e-10
8.71321026e-11
6.60430956e-11
5.00403643e-11
3.7907564e-11
2.87166377e-11
2.17614125e-11
1.65094734e-11
1.25491878e-11
9.55158872e-12
7.28231443e-12
5.56161808e-12
4.25475999e-12
3.26058104e-12
2.50302483e-12
1.924827e-12
1.48280706e-12
1.14434773e-12
8.84768313e-13
6.8537061e-13
5.31972821e-13
4.13795674e-13
3.22623686e-13
2.52186521e-13
1.9771369e-13
1.55565615e-13
1.22970201e-13
9.77428306e-14
7.81977226e-14
6.30471679e-14
5.13022083e-14
4.22108554e-14
3.51731133e-14
2.97522418e-14
2.55958154e-14
2.24455064e-14
2.00790112e-14
1.832783e-14
1.70602176e-14
1.61753998e-14
1.55821275e-14
1.52191186e-14
1.5016704e-14
1.49254729e-14
1.49121182e-14
1.49406508e-14
1.49950537e-14
1.50451024e-14
1.50834336e-14
1.50929498e-14
1.50664243e-14
1.49982969e-14
1.48772131e-14
1.47094632e-14
1.44999044e-14
1.4252869e-14
1.39686666e-14
1.36497241e-14
1.32999071e-14
1.29220139e-14
1.25193588e-14
1.20951481e-14
1.16532829e-14
1.11988823e-14
1.07376874e-14
1.02754582e-14
9.81746974e-15
9.3681501e-15
8.93070025e-15
8.50703232e-15
8.09822356e-15
7.70581721e-15
7.33788705e-15
6.96097792e-15
6.60153576e-15
6.25462842e-15
5.91869111e-15
5.59330164e-15
5.27853911e-15
4.97462772e-15
4.68178503e-15
4.40017429e-15
4.12991147e-15
3.871105e-15
3.62391472e-15
3.38861616e-15
3.16564837e-15
2.95561458e-15
2.75920404e-15
2.57699192e-15
2.40905612e-15
2.25561099e-15
2.11578845e-15
1.98844407e-15
1.87226053e-15
1.76587274e-15
1.66796884e-15
1.57736362e-15
1.49304884e-15
1.41424219e-15
1.34047117e-15
1.27177069e-15
1.20915235e-15
1.15574437e-15
1.11947755e-15
2.12393305e-18
1.77681072e-18
1.26042251e-18
8.71359573e-19
5.99095311e-19
4.12337556e-19
2.85993028e-19
2.0081038e-19
1.43897291e-19
1.05351616e-19
7.86725515e-20
6.0038564e-20
4.69344545e-20
3.74957668e-20
3.05296253e-20
2.53270256e-20
2.14095167e-20
1.8396026e-20
1.60387988e-20
1.41785566e-20
1.269755e-20
1.14985582e-20
1.05172487e-20
9.70940111e-21
9.03921778e-21
8.477527e-21
8.00241353e-21
7.59854562e-21
7.25336732e-21
6.95717206e-21
6.70198708e-21
6.47735955e-21
6.14625929e-21
5.15394594e-21
1.50701434e-19
1.06846375e-17
7.77644239e-16
5.81272675e-14
4.61607788e-12
3.98835477e-10
6.18839902e-19
8.15974238e-19
7.85153534e-19
6.80426688e-19
5.6259193e-19
4.53552945e-19
3.59619929e-19
2.81910304e-19
2.19618502e-19
1.70879062e-19
1.33238392e-19
1.04442119e-19
8.26200023e-20
6.60676857e-20
5.34206091e-20
4.37037307e-20
3.62199681e-20
3.04034282e-20
2.58272058e-20
2.22013048e-20
1.93142406e-20
1.69900423e-20
1.51000752e-20
1.35548108e-20
1.22840996e-20
1.12305754e-20
1.03504607e-20
9.61023877e-21
8.98393813e-21
8.45245561e-21
7.9993582e-21
7.61044046e-21
7.23598281e-21
5.64927131e-21
2.70846281e-20
1.67907916e-18
1.16823814e-16
8.07714408e-15
5.49663356e-13
3.53404293e-11
8.76851689e-20
3.05648718e-19
3.87615296e-19
4.05057162e-19
3.89131242e-19
3.57090672e-19
3.1839908e-19
2.78187616e-19
2.39370373e-19
2.03639973e-19
1.71791257e-19
1.4405479e-19
1.20373951e-19
1.00455653e-19
8.38542846e-20
7.01042852e-20
5.87869586e-20
4.95094602e-20
4.19075446e-20
3.56772653e-20
3.0576106e-20
2.63965463e-20
2.2959355e-20
2.0125712e-20
1.77860772e-20
1.58481552e-20
1.42374734e-20
1.28915858e-20
1.17620628e-20
1.08107778e-20
1.00079846e-20
9.32767083e-21
8.74356576e-21
8.06859984e-21
9.59657534e-21
2.61758792e-19
1.64755768e-17
1.00736562e-15
5.6977443e-14
2.80741494e-12
1.7349814e-20
6.24819066e-20
1.30094806e-19
2.22064779e-19
2.64162133e-19
2.74539591e-19
2.6698112e-19
2.49624754e-19
2.27417512e-19
2.03383589e-19
1.79388347e-19
1.56547462e-19
1.35505505e-19
1.16582677e-19
9.98671323e-20
8.52940084e-20
7.27310203e-20
6.20027746e-20
5.29039631e-20
4.52259982e-20
3.87769172e-20
3.33781827e-20
2.88675978e-20
2.51031099e-20
2.19632277e-20
1.93452628e-20
1.71610267e-20