/*--------------------------------*- C++ -*----------------------------------*\
  =========                 |
  \\      /  F ield         | OpenFOAM: The Open Source CFD Toolbox
   \\    /   O peration     | Website:  https://openfoam.org
    \\  /    A nd           | Version:  6
     \\/     M anipulation  |
\*---------------------------------------------------------------------------*/
FoamFile
{
    version     2.0;
    format      ascii;
    class       volScalarField;
    location    "25000";
    object      CH2O;
}
// * * * * * * * * * * * * * * * * * * * * * * * * * * * * * * * * * * * * * //

dimensions      [0 0 0 0 0 0 0];

internalField   nonuniform List<scalar> 
44870
(
4.73742282e-52
1.18383282e-51
2.12998537e-51
3.3144739e-51
4.74297083e-51
6.42058657e-51
8.3571122e-51
1.05610157e-50
1.30461941e-50
1.58244405e-50
1.8913457e-50
2.23280449e-50
2.60891348e-50
3.02140546e-50
3.47262154e-50
3.96449714e-50
4.49956027e-50
5.07989606e-50
5.70813872e-50
6.38651129e-50
7.11769881e-50
7.9046616e-50
8.8518012e-50
2.73473715e-49
3.07981061e-47
5.40044288e-45
9.63157922e-43
1.74052025e-40
3.18351888e-38
5.89063969e-36
1.10082811e-33
2.07577479e-31
3.9377639e-29
7.49894891e-27
1.42475122e-24
2.68418887e-22
4.93952286e-20
8.70431407e-18
1.3833548e-15
1.8618855e-13
4.7425956e-52
1.18659125e-51
2.14077946e-51
3.34474301e-51
4.81200601e-51
6.55555095e-51
8.59535885e-51
1.09486937e-50
1.3640648e-50
1.66916689e-50
2.01314354e-50
2.39825748e-50
2.82788534e-50
3.30446455e-50
3.83167186e-50
4.41212583e-50
5.04976111e-50
5.74728559e-50
6.50883938e-50
7.33718104e-50
8.23662116e-50
9.21121052e-50
1.04984911e-49
5.56945819e-49
8.39703721e-47
1.60753237e-44
3.11573008e-42
6.11396682e-40
1.2115145e-37
2.43016204e-35
4.91732407e-33
1.00725444e-30
2.07847548e-28
4.34190589e-26
9.11243846e-24
1.93141489e-21
4.07598691e-19
8.58579158e-17
1.69100716e-14
3.16992572e-12
4.79689791e-52
1.21742208e-51
2.23731719e-51
3.57078488e-51
5.25768344e-51
7.33652038e-51
9.85874184e-51
1.2866815e-50
1.64211844e-50
2.05677542e-50
2.53760792e-50
3.08910433e-50
3.7194917e-50
4.43229835e-50
5.23761603e-50
6.137876e-50
7.14424375e-50
8.2580454e-50
9.49181583e-50
1.08448257e-49
1.23317504e-49
1.39555811e-49
1.71689631e-49
3.20576729e-48
6.33101932e-46
1.33210689e-43
2.81334927e-41
5.99178436e-39
1.27958906e-36
2.75999072e-34
5.9640159e-32
1.30411575e-29
2.85290701e-27
6.33296014e-25
1.4052861e-22
3.17343991e-20
7.1545605e-18
1.65469277e-15
3.67281825e-13
8.37615521e-11
5.48521242e-52
1.50639933e-51
2.96556914e-51
5.02581543e-51
7.7855252e-51
1.13491304e-50
1.58248555e-50
2.13199055e-50
2.79427028e-50
3.57913853e-50
4.49619486e-50
5.55316788e-50
6.75712912e-50
8.11278502e-50
9.62360717e-50
1.12911023e-49
1.31141011e-49
1.50914257e-49
1.72157616e-49
1.94852375e-49
2.18905951e-49
2.45520481e-49
5.60014359e-49
6.41317168e-47
1.40626976e-44
3.09813191e-42
6.82096922e-40
1.50364682e-37
3.31436088e-35
7.32655914e-33
1.61984043e-30
3.59703098e-28
7.98857252e-26
1.78466885e-23
3.9871572e-21
8.95584249e-19
2.00615919e-16
4.49985213e-14
9.76634797e-12
2.06153269e-09
1.54008545e-51
4.10978835e-51
7.55663561e-51
1.17838121e-50
1.6733238e-50
2.23592106e-50
2.86401113e-50
3.5558611e-50
4.31158472e-50
5.13129479e-50
6.01663302e-50
6.96894859e-50
7.9909565e-50
9.08481327e-50
1.02538844e-49
1.15007646e-49
1.28291076e-49
1.42416068e-49
1.57418762e-49
1.73324906e-49
1.90294636e-49
2.36568695e-49
6.57320943e-48
1.40110389e-45
3.07804043e-43
6.73689083e-41
1.4695329e-38
3.19569803e-36
6.93241769e-34
1.5004349e-31
3.24165368e-29
6.99207314e-27
1.50623111e-24
3.2408396e-22
6.9669707e-20
1.49642351e-17
3.21216967e-15
6.89048268e-13
1.47724498e-10
3.18210027e-08
5.94302033e-12
2.52427375e-11
6.69000645e-11
1.46580417e-10
2.88656716e-10
5.28395888e-10
9.14022726e-10
1.51121766e-09
2.40301602e-09
3.70127199e-09
5.53980627e-09
8.09852256e-09
1.15836511e-08
1.62695647e-08
2.24748358e-08
3.05875432e-08
4.10898756e-08
5.45166593e-08
7.15880546e-08
9.30470398e-08
1.19887238e-07
1.53192568e-07
1.94286149e-07
2.44739127e-07
3.06378968e-07
3.8143744e-07
4.72181945e-07
5.82076792e-07
7.13846929e-07
8.72331744e-07
1.06166487e-06
1.28738595e-06
1.55579821e-06
1.87298009e-06
2.24761456e-06
2.68686249e-06
3.20156225e-06
3.8004878e-06
4.49621313e-06
5.29999005e-06
6.22634453e-06
7.28991412e-06
8.50690324e-06
9.89241338e-06
1.14662774e-05
1.32422732e-05
1.52352713e-05
1.74595923e-05
1.9929196e-05
2.26581727e-05
2.56602002e-05
2.8949134e-05
3.2537448e-05
3.64369121e-05
4.06562649e-05
4.52018806e-05
5.00755853e-05
5.52756187e-05
6.07959801e-05
6.6627707e-05
7.27596825e-05
7.91790807e-05
8.58734053e-05
9.28295107e-05
0.000100037893
0.000107489199
0.000115179978
0.000123106604
0.000131269986
0.000139667231
0.000148294913
0.000157144291
0.000166200383
0.000175449151
0.000184864658
0.000194438167
0.000204129969
0.000213930214
0.000223820562
0.000233786454
0.000243813756
0.000253889749
0.000264004338
0.000274147141
0.000284308353
0.000294476327
0.000304641536
0.000314790774
0.000324912422
0.000334996033
0.000345031242
0.000355010025
0.000364924787
0.000374769657
0.000384540061
0.00039423225
0.000403842317
0.000413365492
0.000422794763
0.00043212043
0.000441326137
0.000450390133
0.000459281839
0.000467961927
0.00047638079
0.000484477906
0.000492178491
0.00049939082
0.000506001629
0.000511871477
0.000516827317
0.000520655523
0.000523094469
0.000523823855
0.000522458888
0.000518549201
0.000511588088
0.000501034338
0.000486348496
0.000467046864
0.000442781827
0.000413465641
0.000379456953
0.000341767711
0.000302114566
0.000262640708
0.000225365795
0.000191713733
0.000162346503
0.000137296814
0.000116216865
9.85957397e-05
8.38802103e-05
7.15539158e-05
6.11776978e-05
5.23772375e-05
4.48486362e-05
3.8332808e-05
3.25873279e-05
2.74383701e-05
2.25133277e-05
1.78455242e-05
1.34716106e-05
9.63379474e-06
6.69260666e-06
4.65200259e-06
3.26556935e-06
2.31307332e-06
1.65808118e-06
1.19078387e-06
8.55191839e-07
6.17526477e-07
4.47804102e-07
3.25889782e-07
2.37913404e-07
1.74185256e-07
1.27867665e-07
9.4103448e-08
6.94403076e-08
5.1412324e-08
3.8183438e-08
2.8428388e-08
2.12028843e-08
1.5842756e-08
1.18572375e-08
8.88274404e-09
6.65765196e-09
4.99876231e-09
3.76033137e-09
2.83439256e-09
2.14093933e-09
1.62069822e-09
1.22973678e-09
9.35471186e-10
7.13547792e-10
5.45775978e-10
4.18792422e-10
3.2255082e-10
2.49503344e-10
1.9398743e-10
1.51748844e-10
1.19585741e-10
9.50847173e-11
7.6424961e-11
6.22309308e-11
5.14610709e-11
4.33263685e-11
3.72315835e-11
3.27302168e-11
2.94898267e-11
2.72663247e-11
2.59162324e-11
2.52557902e-11
2.5141749e-11
2.54709508e-11
2.61765221e-11
2.72191565e-11
2.85670549e-11
3.01984424e-11
3.21004188e-11
3.42785085e-11
3.674399e-11
3.95085792e-11
4.25520406e-11
4.59157528e-11
4.95884039e-11
5.36265799e-11
5.79809383e-11
6.25782565e-11
6.74669491e-11
7.25897181e-11
7.79502315e-11
8.34449542e-11
8.90777752e-11
9.48316356e-11
1.00694309e-10
1.06597167e-10
1.12302119e-10
1.18223989e-10
1.24508552e-10
1.30941238e-10
1.37559137e-10
1.4434371e-10
1.51280871e-10
1.58299864e-10
1.65328234e-10
1.72294896e-10
1.79162821e-10
1.85967632e-10
1.92797311e-10
1.99767046e-10
2.069989e-10
2.14596117e-10
2.22617596e-10
2.31070548e-10
2.39929697e-10
2.49193532e-10
2.58831941e-10
2.68216025e-10
2.77448359e-10
2.86487965e-10
2.95225992e-10
3.03565107e-10
3.11438461e-10
3.18806878e-10
3.25653115e-10
3.31977781e-10
3.37796701e-10
3.43138863e-10
3.48044187e-10
3.52560408e-10
3.56738333e-10
3.60625008e-10
3.6425573e-10
3.67651553e-10
3.70850632e-10
3.73599488e-10
3.76013323e-10
3.78032304e-10
3.79621714e-10
3.80777417e-10
3.81520814e-10
3.81891853e-10
3.81941216e-10
3.81723828e-10
3.81295451e-10
3.80713805e-10
3.80046434e-10
3.79390396e-10
3.78913301e-10
1.22485652e-10
4.49330583e-10
1.0418945e-09
2.07523625e-09
3.80733782e-09
6.57826603e-09
1.08085637e-08
1.70558624e-08
2.59866346e-08
3.84808936e-08
5.55322777e-08
7.84503214e-08
1.08649184e-07
1.47966272e-07
1.98411979e-07
2.62319741e-07
3.424503e-07
4.41680515e-07
5.6368257e-07
7.1190201e-07
8.90708133e-07
1.10454105e-06
1.35820408e-06
1.65748794e-06
2.00727788e-06
2.41470174e-06
2.88502396e-06
3.42638956e-06
4.04428726e-06
4.74710611e-06
5.54088663e-06
6.43286282e-06
7.42856249e-06
8.53355049e-06
9.75285539e-06
1.10904218e-05
1.25511827e-05
1.41379381e-05
1.58559988e-05
1.77076171e-05
1.96980297e-05
2.18287807e-05
2.4103392e-05
2.6520332e-05
2.90861336e-05
3.17988507e-05
3.46601717e-05
3.76730708e-05
4.08418188e-05
4.4171995e-05
4.76701101e-05
5.13437577e-05
5.52010432e-05
5.92508955e-05
6.35025294e-05
6.79656826e-05
7.26496364e-05
7.75631538e-05
8.27133578e-05
8.81056224e-05
9.37428629e-05
9.96259572e-05
0.000105753726
0.000112123904
0.00011873421
0.000125581233
0.000132664631
0.000139983294
0.000147538062
0.000155327026
0.000163347385
0.000171592076
0.000180049491
0.00018870724
0.000197544574
0.000206551732
0.000215694487
0.000224962554
0.000234338257
0.00024380753
0.00025335561
0.000262970248
0.000272641224
0.000282357635
0.000292108784
0.000301882808
0.000311668728
0.000321453363
0.000331224225
0.000340970473
0.000350680994
0.000360346554
0.000369959166
0.000379512077
0.000388999566
0.000398416358
0.000407756734
0.000417013834
0.000426178381
0.000435238297
0.000444174507
0.000452962634
0.000461569649
0.000469953785
0.000478063221
0.000485835124
0.000493191972
0.000500039209
0.000506260221
0.000511712266
0.000516219297
0.000519565544
0.00052148774
0.000521666415
0.000519720919
0.000515209272
0.000507639257
0.000496490966
0.000481252889
0.000461475679
0.000436853072
0.000407345391
0.000373361154
0.000335947379
0.00029680893
0.000258018331
0.000221487871
0.000188548456
0.000159804876
0.000135269305
0.000114597508
9.72949967e-05
8.28235917e-05
7.06822246e-05
6.04480626e-05
5.17560965e-05
4.43124433e-05
3.78633091e-05
3.2164623e-05
2.70124528e-05
2.21063998e-05
1.74704323e-05
1.31430732e-05
9.39319206e-06
6.543281e-06
4.56351547e-06
3.21163396e-06
2.27898966e-06
1.63543769e-06
1.17509265e-06
8.4513199e-07
6.10875586e-07
4.43320211e-07
3.22829189e-07
2.358056e-07
1.72723956e-07
1.26848927e-07
9.33892825e-08
6.8928988e-08
5.1041269e-08
3.79144989e-08
2.82374529e-08
2.10671342e-08
1.57460646e-08
1.17884045e-08
8.83395771e-09
6.62279382e-09
4.9734839e-09
3.74200594e-09
2.82110783e-09
2.13130459e-09
1.61370754e-09
1.22466496e-09
9.31800092e-10
7.10893244e-10
5.4385213e-10
4.17409832e-10
3.21566564e-10
2.48812132e-10
1.9351242e-10
1.51433967e-10
1.19389934e-10
9.49777951e-11
7.63848743e-11
6.22417743e-11
5.15112935e-11
4.34073666e-11
3.73371328e-11
3.28563022e-11
2.96341388e-11
2.74267227e-11
2.60921138e-11
2.54443333e-11
2.53420741e-11
2.56818678e-11
2.63975954e-11
2.74513789e-11
2.88123921e-11
3.04572133e-11
3.23708417e-11
3.45622754e-11
3.70430877e-11
3.98261882e-11
4.28862166e-11
4.62620389e-11
4.99504538e-11
5.40088106e-11
5.83838689e-11
6.29943597e-11
6.78935184e-11
7.3033447e-11
7.84144968e-11
8.39288961e-11
8.95716465e-11
9.53335478e-11
1.01210432e-10
1.07131733e-10
1.12833587e-10
1.18766592e-10
1.25064419e-10
1.3149548e-10
1.38113089e-10
1.44893225e-10
1.51823054e-10
1.58835939e-10
1.65859744e-10
1.72822682e-10
1.79687992e-10
1.8649235e-10
1.93323763e-10
2.00295692e-10
2.07527722e-10
2.15121303e-10
2.23134424e-10
2.31573846e-10
2.40414289e-10
2.49655408e-10
2.59289557e-10
2.68631116e-10
2.77830312e-10
2.86841178e-10
2.95551597e-10
3.0386412e-10
3.1171255e-10
3.19058145e-10
3.25883788e-10
3.32189998e-10
3.37992387e-10
3.43319647e-10
3.48211344e-10
3.52714796e-10
3.56880355e-10
3.6075459e-10
3.64372348e-10
3.67754294e-10
3.70945275e-10
3.73671545e-10
3.76072335e-10
3.78078217e-10
3.796555e-10
3.80800533e-10
3.81534843e-10
3.81898305e-10
3.81941432e-10
3.81718935e-10
3.81286366e-10
3.80701273e-10
3.80031085e-10
3.79372856e-10
3.78894713e-10
4.60091198e-09
1.48300543e-08
3.09846357e-08
5.70519785e-08
9.71353575e-08
1.55740812e-07
2.38030887e-07
3.50026379e-07
4.98075645e-07
6.894065e-07
9.31135543e-07
1.23118758e-06
1.59685452e-06
2.03612008e-06
2.55604808e-06
3.16384478e-06
3.86605396e-06
4.66822635e-06
5.57589029e-06
6.59303404e-06
7.72372647e-06
8.97073056e-06
1.03362669e-05
1.18219542e-05
1.34279313e-05
1.51557018e-05
1.70027928e-05
1.89703099e-05
2.10518455e-05
2.32454159e-05
2.55450955e-05
2.79447017e-05
3.04366944e-05
3.30146744e-05
3.56717939e-05
3.84034745e-05
4.12059288e-05
4.40769145e-05
4.70156415e-05
5.00200097e-05
5.30897183e-05
5.62219979e-05
5.94171387e-05
6.26709509e-05
6.59905875e-05
6.93739395e-05
7.28235063e-05
7.63427372e-05
7.99355885e-05
8.36064722e-05
8.73598192e-05
9.12012704e-05
9.51373447e-05
9.91760439e-05
0.000103326781
0.000107600296
0.000112007972
0.000116561365
0.000121271357
0.000126147616
0.000131198307
0.000136430407
0.000141849058
0.000147459842
0.000153265739
0.000159269915
0.000165477438
0.000171891646
0.000178516126
0.000185352737
0.000192401942
0.000199660951
0.000207123853
0.000214782252
0.000222623079
0.000230637191
0.000238800658
0.000247104459
0.00025553464
0.000264079327
0.000272726678
0.000281466266
0.000290288166
0.000299181869
0.0003081359
0.00031713827
0.000326175946
0.000335236104
0.000344305178
0.000353370709
0.000362421286
0.000371446563
0.000380437274
0.000389385043
0.000398281966
0.000407119779
0.000415889183
0.000424579168
0.000433175953
0.000441662453
0.000450014297
0.000458201747
0.000466186795
0.000473922685
0.000481353204
0.000488410618
0.000495011794
0.000501056212
0.000506420403
0.000510955135
0.000514479309
0.000516772975
0.000517571558
0.000516559532
0.000513367268
0.000507573063
0.000498717991
0.000486329263
0.000469955636
0.000449220929
0.000423906857
0.000394074609
0.000360233152
0.000323492851
0.000285515648
0.000248213675
0.000213272247
0.000181838533
0.000154407485
0.000130952579
0.000111139578
9.45098634e-05
8.05545144e-05
6.88043376e-05
5.88724497e-05
5.04114417e-05
4.31498343e-05
3.68444631e-05
3.12471951e-05
2.60706479e-05
2.12175082e-05
1.66432553e-05
1.24431454e-05
8.89198277e-06
6.23289471e-06
4.37802511e-06
3.09744982e-06
2.20635723e-06
1.58679895e-06
1.14149774e-06
8.23601997e-07
5.96574105e-07
4.33649972e-07
3.162161e-07
2.31244941e-07
1.69558793e-07
1.24640566e-07
9.18401681e-08
6.7832142e-08
5.02428481e-08
3.73343314e-08
2.78222667e-08
2.07718549e-08
1.55356693e-08
1.16384477e-08
8.72753907e-09
6.54685525e-09
4.91835954e-09
3.7020397e-09
2.79213148e-09
2.11028632e-09
1.59845497e-09
1.21359756e-09
9.23789906e-10
7.05101693e-10
5.39651961e-10
4.14393419e-10
3.19420243e-10
2.47305992e-10
1.92478661e-10
1.50750022e-10
1.18966152e-10
9.47485214e-11
7.63020371e-11
6.22702885e-11
5.16256537e-11
4.35891081e-11
3.75731435e-11
3.31376148e-11
2.99551035e-11
2.77848497e-11
2.64820899e-11
2.5862408e-11
2.5785717e-11
2.61489582e-11
2.68871436e-11
2.79651795e-11
2.93540577e-11
3.10283815e-11
3.29706511e-11
3.51914916e-11
3.77038206e-11
4.05242778e-11
4.36227977e-11
4.70316973e-11
5.07538534e-11
5.48505361e-11
5.92658074e-11
6.39110333e-11
6.88414894e-11
7.40156433e-11
7.94335934e-11
8.49876323e-11
9.06605521e-11
9.64467252e-11
1.0234976e-10
1.08304545e-10
1.14100209e-10
1.20035085e-10
1.26290329e-10
1.32716685e-10
1.39329971e-10
1.46102068e-10
1.53019299e-10
1.60018955e-10
1.67030201e-10
1.73983289e-10
1.80842798e-10
1.8764572e-10
1.94479356e-10
2.01454226e-10
2.08685599e-10
2.16270903e-10
2.24265627e-10
2.32675387e-10
2.41474967e-10
2.50667433e-10
2.60293146e-10
2.69539706e-10
2.78667396e-10
2.87615982e-10
2.96266163e-10
3.04520509e-10
3.12314341e-10
3.19609902e-10
3.26390349e-10
3.3265601e-10
3.38422029e-10
3.43716464e-10
3.48578104e-10
3.53053377e-10
3.5719164e-10
3.61038448e-10
3.64627674e-10
3.67978953e-10
3.71118917e-10
3.73828073e-10
3.76201558e-10
3.78178739e-10
3.79729461e-10
3.80851116e-10
3.81565494e-10
3.81912323e-10
3.81941743e-10
3.81708005e-10
3.81266209e-10
3.80673526e-10
3.79997137e-10
3.7933409e-10
3.78853277e-10
1.84451696e-07
4.74905348e-07
8.83409655e-07
1.43233141e-06
2.14232455e-06
3.03389885e-06
4.12022984e-06
5.40962613e-06
6.90365521e-06
8.60249712e-06
1.05028733e-05
1.26007143e-05
1.48847184e-05
1.73432497e-05
1.9957453e-05
2.27117558e-05
2.5585714e-05
2.85632664e-05
3.16315607e-05
3.4777308e-05
3.79898251e-05
4.12553812e-05
4.45644283e-05
4.79038795e-05
5.12683868e-05
5.46500563e-05
5.80455017e-05
6.14536467e-05
6.48628335e-05
6.82731322e-05
7.16794601e-05
7.50765929e-05
7.84613198e-05
8.18329725e-05
8.51932141e-05
8.85457646e-05
9.18942753e-05
9.52430116e-05
9.85939646e-05
0.000101947557
0.000105304208
0.000108664251
0.000112030667
0.00011540392
0.000118794482
0.000122202964
0.000125633063
0.000129088007
0.000132570675
0.000136083666
0.000139630537
0.000143216716
0.00014684945
0.000150538262
0.000154293775
0.000158127328
0.000162049722
0.000166070809
0.00017019923
0.000174442149
0.000178806585
0.00018329863
0.000187924448
0.000192689791
0.000197600431
0.000202662706
0.000207884091
0.000213271757
0.000218833058
0.000224574145
0.000230499527
0.000236610771
0.000242906747
0.000249382927
0.000256032328
0.000262848107
0.000269816803
0.000276932765
0.000284187751
0.000291573844
0.000299084648
0.00030671208
0.000314446777
0.000322278827
0.000330195863
0.000338185343
0.000346232808
0.000354324219
0.000362445783
0.000370584333
0.00037872795
0.000386865401
0.000394985927
0.000403079029
0.000411133767
0.000419137763
0.000427076842
0.000434934438
0.000442690688
0.00045032121
0.000457794955
0.000465075073
0.000472116815
0.000478866778
0.000485263244
0.000491231601
0.000496681204
0.000501502961
0.000505564887
0.00050871034
0.000510753073
0.000511470901
0.000510602031
0.000507841895
0.00050284257
0.000495216882
0.000484559106
0.000470467582
0.000452578888
0.000430621964
0.000404505013
0.000374428894
0.000341028837
0.000305475413
0.000269323927
0.000234236345
0.000201579073
0.000172275751
0.000146690116
0.000124752596
0.000106147232
9.04705397e-05
7.72465298e-05
6.60509249e-05
5.65530445e-05
4.84229407e-05
4.14261131e-05
3.53324467e-05
2.976633e-05
2.46515376e-05
1.98690617e-05
1.54231858e-05
1.14495583e-05
8.20390923e-06
5.8076005e-06
4.11869354e-06
2.93514085e-06
2.10198941e-06
1.51481616e-06
1.09424056e-06
7.92481033e-07
5.75694776e-07
4.19461421e-07
3.06482177e-07
2.24515969e-07
1.64880251e-07
1.21371443e-07
8.95438753e-08
6.62091038e-08
4.90763426e-08
3.64828636e-08
2.72039005e-08
2.03321233e-08
1.52221542e-08
1.14144942e-08
8.56824723e-09
6.43321373e-09
4.83588707e-09
3.6422427e-09
2.74876813e-09
2.07882351e-09
1.57561662e-09
1.19702175e-09
9.11794934e-10
6.96383906e-10
5.33356716e-10
4.0987759e-10
3.16209757e-10
2.45056131e-10
1.90937866e-10
1.49734432e-10
1.18341397e-10
9.44163406e-11
7.61902935e-11
6.23259764e-11
5.18103525e-11
4.38755146e-11
3.79419566e-11
3.35750904e-11
3.04521134e-11
2.83380577e-11
2.70839219e-11
2.65065574e-11
2.64679116e-11
2.68671572e-11
2.76397903e-11
2.87544262e-11
3.01842427e-11
3.19030076e-11
3.38939314e-11
3.61588962e-11
3.87173174e-11
4.15894193e-11
4.47484591e-11
4.82166249e-11
5.19878036e-11
5.61375158e-11
6.06049195e-11
6.53090138e-11
7.02973725e-11
7.55190964e-11
8.0985479e-11
8.65913586e-11
9.2320224e-11
9.81515729e-11
1.04088927e-10
1.1008216e-10
1.15977722e-10
1.2195505e-10
1.28164265e-10
1.34578349e-10
1.41180277e-10
1.47939856e-10
1.54842577e-10
1.61822431e-10
1.68811462e-10
1.75746446e-10
1.82595452e-10
1.89394799e-10
1.96229129e-10
2.03205489e-10
2.10433876e-10
2.18005789e-10
2.25972223e-10
2.34336781e-10
2.43074422e-10
2.52192994e-10
2.61813383e-10
2.70906974e-10
2.79929592e-10
2.88785651e-10
2.97345318e-10
3.05511958e-10
3.13223415e-10
3.20443447e-10
3.27155612e-10
3.3335994e-10
3.39070874e-10
3.44315521e-10
3.49131518e-10
3.53563959e-10
3.57660735e-10
3.61465891e-10
3.65011872e-10
3.68316029e-10
3.71382352e-10
3.7406541e-10
3.76395889e-10
3.78329648e-10
3.79840358e-10
3.80926802e-10
3.81611143e-10
3.81932884e-10
3.81941606e-10
3.81690878e-10
3.81235124e-10
3.80630951e-10
3.79945174e-10
3.79274826e-10
3.78789684e-10
7.14213873e-06
1.17738384e-05
1.63999705e-05
2.123444e-05
2.65596554e-05
3.23122936e-05
3.82958806e-05
4.43360982e-05
5.03285669e-05
5.62425026e-05
6.20909324e-05
6.78501568e-05
7.34514553e-05
7.88327782e-05
8.39510176e-05
8.88018871e-05
9.34266262e-05
9.78845941e-05
0.000102223482
0.000106458485
0.000110582722
0.000114578857
0.000118436278
0.000122156756
0.000125760043
0.000129266103
0.000132708233
0.000136083095
0.000139396516
0.000142637362
0.000145793021
0.000148854895
0.000151826432
0.000154721816
0.00015756049
0.00016036148
0.000163137326
0.000165895283
0.000168635506
0.000171358009
0.000174064921
0.000176764033
0.00017946702
0.000182183754
0.000184926777
0.000187694651
0.000190484146
0.000193290001
0.000196107961
0.000198937461
0.000201783098
0.000204654784
0.000207565234
0.000210528449
0.000213555865
0.000216656034
0.000219833236
0.000223089378
0.000226425628
0.000229843463
0.000233347116
0.000236939875
0.000240626599
0.000244409696
0.000248296884
0.000252295892
0.000256415697
0.000260667484
0.000265062862
0.000269611447
0.00027432073
0.000279194359
0.000284233009
0.000289433898
0.000294793609
0.00030030849
0.000305974378
0.000311790114
0.000317753483
0.000323862104
0.00033011284
0.000336499716
0.000343013547
0.000349643056
0.000356374152
0.000363193049
0.000370083916
0.000377031946
0.000384023621
0.000391046041
0.000398087167
0.000405134961
0.000412176998
0.000419200023
0.000426189081
0.000433126697
0.00043999273
0.000446764286
0.000453413716
0.000459907904
0.000466208986
0.000472271897
0.000478044162
0.000483465223
0.000488467997
0.00049297071
0.000496873408
0.000500057153
0.000502382247
0.000503687154
0.000503784888
0.000502456827
0.000499452747
0.000494490709
0.000487258615
0.000477418716
0.0004646386
0.000448608781
0.000429076332
0.000405900988
0.00037914782
0.000349175185
0.0003167336
0.000283015218
0.000249367225
0.000217124928
0.000187276208
0.000160549431
0.000137181258
0.00011706488
9.99121406e-05
8.5396646e-05
7.30605111e-05
6.25371942e-05
5.35784447e-05
4.58551219e-05
3.91940708e-05
3.32206177e-05
2.77685455e-05
2.27513766e-05
1.81042865e-05
1.38866356e-05
1.02624698e-05
7.40810967e-06
5.31047985e-06
3.807696e-06
2.73652333e-06
1.97268077e-06
1.42778418e-06
1.03598046e-06
7.53385178e-07
5.49213035e-07
4.01361404e-07
2.94014106e-07
2.15873891e-07
1.58856497e-07
1.1715155e-07
8.65738639e-08
6.41084756e-08
4.75770409e-08
3.53964318e-08
2.64093823e-08
1.97598401e-08
1.48137521e-08
1.11222727e-08
8.35954937e-09
6.28429075e-09
4.72785276e-09
3.56390501e-09
2.69194105e-09
2.03757529e-09
1.54566345e-09
1.17527441e-09
8.96062408e-10
6.8492947e-10
5.25099487e-10
4.03957832e-10
3.12006108e-10
2.42116196e-10
1.88931227e-10
1.48419366e-10
1.17541301e-10
9.400224e-11
7.60673519e-11
6.24241402e-11
5.2078886e-11
4.42788736e-11
3.84551326e-11
3.41797991e-11
3.11358936e-11
2.90962687e-11
2.79074782e-11
2.73860654e-11
2.7397057e-11
2.78450972e-11
2.86650718e-11
2.98284203e-11
3.13106621e-11
3.30875147e-11
3.51497554e-11
3.74752611e-11
4.00931109e-11
4.30268322e-11
4.62665937e-11
4.98254534e-11
5.3662465e-11
5.78775863e-11
6.24014274e-11
6.71878884e-11
7.22657985e-11
7.75490708e-11
8.30715814e-11
8.87337887e-11
9.45457347e-11
1.00447805e-10
1.06427745e-10
1.12460499e-10
1.18430242e-10
1.24471865e-10
1.30677162e-10
1.37076548e-10
1.43658867e-10
1.50400553e-10
1.57288579e-10
1.64242757e-10
1.71199119e-10
1.78106304e-10
1.84939076e-10
1.91731494e-10
1.98563206e-10
2.05537395e-10
2.12758466e-10
2.20310437e-10
2.28237674e-10
2.36540892e-10
2.45195323e-10
2.54212602e-10
2.6384405e-10
2.72711755e-10
2.81601638e-10
2.90337402e-10
2.98777464e-10
3.06827797e-10
3.14429972e-10
3.21549765e-10
3.28171234e-10
3.34293988e-10
3.39931547e-10
3.45109768e-10
3.49864784e-10
3.54239952e-10
3.58281248e-10
3.62030765e-10
3.65519135e-10
3.68761353e-10
3.71750474e-10
3.74380457e-10
3.76651968e-10
3.78528023e-10
3.79985805e-10
3.81025695e-10
3.81670299e-10
3.81958819e-10
3.81940108e-10
3.81666836e-10
3.81192545e-10
3.80573101e-10
3.79874842e-10
3.79194776e-10
3.78703729e-10
0.000166929321
0.000150221619
0.000141796822
0.000141411469
0.000147219372
0.000152959933
0.000156806969
0.000159572727
0.000162176641
0.00016526483
0.000169113447
0.000172995624
0.000176256215
0.000178724635
0.000180608687
0.000182275734
0.000184105143
0.000186310667
0.000188804778
0.000191308039
0.000193604277
0.000195612169
0.000197379522
0.000199024835
0.000200683561
0.000202447759
0.000204343214
0.000206298185
0.000208222105
0.000210038245
0.000211713829
0.000213261309
0.00021473135
0.000216187592
0.000217682624
0.000219240449
0.000220853453
0.000222499751
0.000224158434
0.000225824393
0.000227508585
0.000229234183
0.000231025993
0.000232897746
0.000234846767
0.000236849514
0.000238880771
0.000240921431
0.000242964867
0.000245017576
0.000247096281
0.000249223029
0.00025141819
0.000253696724
0.000256063186
0.000258515148
0.0002610443
0.000263643085
0.000266307925
0.000269039969
0.000271845495
0.000274726022
0.000277683803
0.000280719631
0.000283841658
0.000287060278
0.000290388074
0.000293838888
0.000297426494
0.000301160468
0.000305047462
0.000309088595
0.000313282584
0.000317625947
0.00032211672
0.000326754325
0.000331540114
0.00033647623
0.000341563995
0.000346803785
0.00035219291
0.00035772465
0.000363388245
0.000369170209
0.000375054954
0.000381027513
0.000387071942
0.00039317417
0.000399321615
0.000405502192
0.000411704108
0.000417914705
0.000424120168
0.000430304671
0.000436449919
0.000442534585
0.000448533913
0.000454420591
0.000460160667
0.00046571649
0.000471044649
0.000476095021
0.000480810286
0.000485125936
0.000488973337
0.000492266302
0.000494898015
0.000496743848
0.000497662048
0.000497492679
0.000496054427
0.000493137059
0.000488506152
0.000481903961
0.00047305137
0.000461650252
0.000447429669
0.000430152801
0.000409651938
0.000385884834
0.000359030952
0.000329539382
0.000298196866
0.000266171861
0.00023458421
0.000204532803
0.000176734693
0.00015187165
0.000130099542
0.000111292406
9.51867153e-05
8.15280097e-05
6.9836386e-05
5.97988682e-05
5.12493298e-05
4.38246895e-05
3.72970381e-05
3.14578903e-05
2.61272872e-05
2.12273722e-05
1.6735527e-05
1.27554549e-05
9.43493897e-06
6.86127691e-06
4.96019873e-06
3.58221677e-06
2.58958178e-06
1.87567155e-06
1.36252267e-06
9.91872769e-07
7.23450271e-07
5.28766957e-07
3.87301459e-07
2.84283241e-07
2.09105464e-07
1.54123702e-07
1.13826103e-07
8.42277914e-08
6.24463482e-08
4.63923134e-08
3.45441731e-08
2.57885438e-08
1.93063016e-08
1.44882651e-08
1.08890143e-08
8.19238646e-09
6.1647395e-09
4.64115214e-09
3.50102407e-09
2.6463051e-09
2.00443241e-09
1.52158402e-09
1.15778343e-09
8.83419522e-10
6.75724506e-10
5.18461465e-10
3.99202911e-10
3.08635085e-10
2.39765018e-10
1.87333901e-10
1.4738117e-10
1.16919646e-10
9.36928299e-11
7.59938054e-11
6.253038e-11
5.23240277e-11
4.46336986e-11
3.88991472e-11
3.46988066e-11
3.17207004e-11
2.97432787e-11
2.86067151e-11
2.81303463e-11
2.81826232e-11
2.86704044e-11
2.95304924e-11
3.07344774e-11
3.22610056e-11
3.40848715e-11
3.6201718e-11
3.85804491e-11
4.12486309e-11
4.42369645e-11
4.75377849e-11
5.11633134e-11
5.50600936e-11
5.93331549e-11
6.39078932e-11
6.87500429e-11
7.38911196e-11
7.92313092e-11
8.48058542e-11
9.05170376e-11
9.63821585e-11
1.02335226e-10
1.08356686e-10
1.14425708e-10
1.20440586e-10
1.26521517e-10
1.32736549e-10
1.39132563e-10
1.45703195e-10
1.52430402e-10
1.59301806e-10
1.66235198e-10
1.73167273e-10
1.8005261e-10
1.86870928e-10
1.93655879e-10
2.00484037e-10
2.0745454e-10
2.14666767e-10
2.22198861e-10
2.30090807e-10
2.38341459e-10
2.46926012e-10
2.5585494e-10
2.65518962e-10
2.74171057e-10
2.82962163e-10
2.91601877e-10
2.9994458e-10
3.07900007e-10
3.15413082e-10
3.22451173e-10
3.28998675e-10
3.35054826e-10
3.40632384e-10
3.45756199e-10
3.50461187e-10
3.54789311e-10
3.58785016e-10
3.62488847e-10
3.65930028e-10
3.69122034e-10
3.72054629e-10
3.74636126e-10
3.76858654e-10
3.786877e-10
3.80102557e-10
3.81104722e-10
3.81717114e-10
3.81978681e-10
3.81937685e-10
3.81646073e-10
3.81156678e-10
3.8052477e-10
3.79816306e-10
3.79128276e-10
3.78632337e-10
4.67781871e-13
4.77721335e-13
3.9790468e-13
3.18293569e-13
2.53891156e-13
2.04112211e-13
1.65947224e-13
1.36554677e-13
1.13738422e-13
9.58805903e-14
8.17878259e-14
7.06134459e-14
6.17063384e-14
5.4528305e-14
4.86886143e-14
4.39139243e-14
3.99888695e-14
3.6727154e-14
3.39952184e-14
3.16979366e-14
2.97547082e-14
2.80965814e-14
2.66742527e-14
2.5450838e-14
2.43933116e-14
2.34734296e-14
2.26704842e-14
2.19673188e-14
2.13502917e-14
2.0807839e-14
2.0329798e-14
1.99074565e-14
1.95353635e-14
1.92204229e-14
1.99217027e-14
1.00335767e-13
6.60985495e-12
4.93609114e-10
3.9198864e-08
3.38776562e-06
1.8262066e-13
2.64134816e-13
2.79098204e-13
2.67096541e-13
2.45293649e-13
2.20957118e-13
1.96491623e-13
1.73026138e-13
1.51191714e-13
1.31616378e-13
1.14559281e-13
9.99282876e-14
8.75079333e-14
7.70401644e-14
6.82439821e-14
6.08594814e-14
5.46624422e-14
4.94453591e-14
4.50337635e-14
4.12930496e-14
3.81134643e-14
3.5396135e-14
3.30623426e-14
3.10526318e-14
2.93175201e-14
2.78118952e-14
2.65006874e-14
2.53552577e-14
2.43520687e-14
2.34720497e-14
2.26988501e-14
2.20173217e-14
2.14169594e-14
2.08910894e-14
2.05774345e-14
3.22542714e-14
1.00306577e-12
6.86538921e-11
4.6739138e-09
3.00903926e-07
6.50300525e-14
1.21703687e-13
1.55197573e-13
1.71378322e-13
1.76394877e-13
1.74707549e-13
1.68925572e-13
1.60412401e-13
1.50093198e-13
1.38828572e-13
1.27302798e-13
1.15976929e-13
1.05176841e-13
9.51370987e-14
8.5973249e-14
7.77124939e-14
7.03390763e-14
6.38122181e-14
5.80626846e-14
5.3012172e-14
4.85898901e-14
4.47259151e-14
4.13490163e-14
3.83962835e-14
3.58158193e-14
3.3559733e-14
3.15853127e-14
2.98540349e-14
2.83326602e-14
2.69940173e-14
2.5816318e-14
2.47789483e-14
2.38642727e-14
2.30579783e-14
2.23728722e-14
2.36221266e-14
1.55656901e-13
8.5843912e-12
4.85433623e-10
2.3980543e-08
4.05924452e-14
7.80182322e-14
1.07376345e-13
1.27277646e-13
1.38941927e-13
1.44275296e-13
1.45032457e-13
1.42520574e-13
1.37694375e-13
1.31276028e-13
1.23837338e-13
1.15824129e-13
1.07582535e-13
9.93909794e-14
9.14585758e-14
8.39257568e-14
7.68834175e-14
7.03873909e-14
6.44577703e-14
5.90881212e-14
5.42591924e-14
4.99415996e-14
4.60968695e-14
4.26836008e-14
3.9660693e-14
3.69895737e-14
3.4632561e-14