/*--------------------------------*- C++ -*----------------------------------*\
  =========                 |
  \\      /  F ield         | OpenFOAM: The Open Source CFD Toolbox
   \\    /   O peration     | Website:  https://openfoam.org
    \\  /    A nd           | Version:  6
     \\/     M anipulation  |
\*---------------------------------------------------------------------------*/
FoamFile
{
    version     2.0;
    format      ascii;
    class       volScalarField;
    location    "25000";
    object      CH3;
}
// * * * * * * * * * * * * * * * * * * * * * * * * * * * * * * * * * * * * * //

dimensions      [0 0 0 0 0 0 0];

internalField   nonuniform List<scalar> 
44870
(
1.01019639e-39
2.03217286e-39
3.05816895e-39
4.08744766e-39
5.121634e-39
6.1613438e-39
7.20898857e-39
8.26550655e-39
9.33337915e-39
1.04135727e-38
1.15084551e-38
1.26189046e-38
1.37470444e-38
1.4893613e-38
1.60603901e-38
1.72479199e-38
1.8457606e-38
1.9689769e-38
2.09454003e-38
2.22246706e-38
2.3528191e-38
2.48560655e-38
2.62086276e-38
2.75859441e-38
2.89882042e-38
3.04154261e-38
3.18683923e-38
3.34676345e-38
5.72638171e-38
4.1839413e-36
7.74990221e-34
1.46077945e-31
2.76941636e-29
5.26870811e-27
9.99450635e-25
1.87845203e-22
3.44448187e-20
6.03830765e-18
9.52354542e-16
1.26833324e-13
1.01069276e-39
2.03443756e-39
3.0662334e-39
4.10742486e-39
5.16184687e-39
6.231116e-39
7.3191498e-39
8.42701204e-39
9.55800998e-39
1.07126057e-38
1.18937031e-38
1.31012226e-38
1.43377876e-38
1.56029596e-38
1.68989917e-38
1.82253007e-38
1.95837817e-38
2.09736189e-38
2.23963872e-38
2.38510788e-38
2.53390014e-38
2.68590224e-38
2.84122456e-38
2.99974951e-38
3.16157174e-38
3.32657777e-38
3.49506148e-38
3.70933785e-38
1.23764736e-37
1.71635078e-35
3.46497886e-33
7.09672138e-31
1.46388316e-28
3.05566806e-26
6.40369413e-24
1.35389073e-21
2.84530361e-19
5.95402999e-17
1.16046746e-14
2.14278238e-12
1.01671845e-39
2.06458367e-39
3.14529598e-39
4.26406366e-39
5.42720499e-39
6.63621146e-39
7.89688613e-39
9.20795872e-39
1.05743658e-38
1.19938232e-38
1.34710597e-38
1.50021792e-38
1.6593131e-38
1.82371422e-38
1.99426268e-38
2.17007113e-38
2.35199869e-38
2.53905101e-38
2.7321568e-38
2.93011719e-38
3.13402671e-38
3.34240108e-38
3.55657713e-38
3.77469984e-38
3.99843212e-38
4.22548418e-38
4.4598424e-38
5.11499931e-38
9.5111025e-37
1.94602818e-34
4.20471732e-32
9.19475677e-30
2.01114585e-27
4.46192359e-25
9.88844391e-23
2.22736673e-20
4.99811993e-18
1.14636421e-15
2.50810137e-13
5.58342127e-11
1.1107597e-39
2.36631291e-39
3.74682287e-39
5.24677278e-39
6.85856099e-39
8.5779769e-39
1.04010809e-38
1.23232518e-38
1.43400792e-38
1.64450174e-38
1.86322707e-38
2.08936098e-38
2.32218283e-38
2.56077019e-38
2.80428058e-38
3.05181664e-38
3.30238631e-38
3.55523543e-38
3.80911913e-38
4.06364213e-38
4.31771722e-38
4.57055478e-38
4.82175699e-38
5.07005723e-38
5.31586602e-38
5.55761237e-38
5.84394676e-38
1.6627349e-37
2.34295564e-35
5.16661918e-33
1.14244278e-30
2.53684016e-28
5.63194227e-26
1.25694095e-23
2.80223007e-21
6.26841029e-19
1.39358477e-16
3.08362403e-14
6.53548575e-12
1.32368607e-09
2.41561071e-39
4.71238815e-39
6.89701257e-39
8.9913066e-39
1.1016303e-38
1.29854599e-38
1.49120905e-38
1.68049617e-38
1.86735446e-38
2.05240646e-38
2.23636921e-38
2.41970412e-38
2.60297434e-38
2.78651908e-38
2.97077411e-38
3.15597052e-38
3.34242665e-38
3.53027329e-38
3.71972126e-38
3.91081689e-38
4.10368601e-38
4.29830924e-38
4.49474336e-38
4.69293146e-38
4.89289138e-38
5.09925051e-38
6.33375735e-38
2.30854383e-36
4.8902073e-34
1.05844304e-31
2.28664572e-29
4.93036272e-27
1.06108732e-24
2.27854187e-22
4.87985993e-20
1.04097047e-17
2.20738644e-15
4.63409118e-13
9.56268662e-11
1.92266759e-08
3.94857083e-12
1.53843453e-11
3.73768433e-11
7.43255009e-11
1.31681725e-10
2.15720772e-10
3.33280109e-10
4.92106066e-10
6.99912048e-10
9.66102018e-10
1.29934311e-09
1.71103655e-09
2.21097999e-09
2.81260549e-09
3.52844371e-09
4.37248802e-09
5.36153876e-09
6.51020095e-09
7.84145315e-09
9.3720979e-09
1.11289595e-08
1.31359739e-08
1.54228473e-08
1.80235537e-08
2.09757084e-08
2.43255889e-08
2.81110255e-08
3.2409862e-08
3.72578524e-08
4.27612977e-08
4.89863218e-08
5.60366603e-08
6.40289697e-08
7.30602226e-08
8.32990702e-08
9.48569807e-08
1.0794752e-07
1.22717655e-07
1.39418807e-07
1.58263808e-07
1.79555909e-07
2.03606043e-07
2.30775275e-07
2.61408449e-07
2.96005507e-07
3.34927867e-07
3.78605893e-07
4.27499508e-07
4.82109336e-07
5.42997166e-07
6.10777008e-07
6.8614389e-07
7.69838524e-07
8.62685924e-07
9.65533012e-07
1.07928307e-06
1.20481677e-06
1.34301527e-06
1.49470756e-06
1.66068865e-06
1.84172002e-06
2.03851996e-06
2.25185131e-06
2.48246576e-06
2.73137032e-06
2.99964343e-06
3.2888847e-06
3.60086863e-06
3.93800459e-06
4.30274258e-06
4.69788959e-06
5.12616379e-06
5.58995551e-06
6.09211102e-06
6.63413005e-06
7.21999865e-06
7.84999675e-06
8.52828259e-06
9.25833664e-06
1.00446826e-05
1.08922392e-05
1.18064185e-05
1.2793504e-05
1.38599189e-05
1.50125605e-05
1.62580151e-05
1.76044212e-05
1.90591836e-05
2.06314194e-05
2.23321745e-05
2.41741371e-05
2.61732898e-05
2.83477114e-05
3.07188003e-05
3.33115127e-05
3.61548662e-05
3.92822534e-05
4.27325538e-05
4.65505967e-05
5.07892853e-05
5.55090968e-05
6.07797306e-05
6.66813268e-05
7.3308732e-05
8.07712111e-05
8.92027579e-05
9.87664262e-05
0.000109657027
0.000122120756
0.000136453138
0.000153015886
0.000172240728
0.000194638019
0.000220808813
0.000251435681
0.000287260961
0.000329045147
0.0003774821
0.000433044614
0.00049572921
0.000564695054
0.000637790287
0.000711109597
0.000778933945
0.000834557606
0.000872021641
0.000887890299
0.000881932712
0.000856634542
0.000816010616
0.000764434545
0.000705840559
0.000643520973
0.00057997641
0.000516841852
0.00045519738
0.000395513373
0.000337960641
0.000282588476
0.000229188815
0.000180527892
0.000136893157
9.9279493e-05
6.94695261e-05
4.8131411e-05
3.35779295e-05
2.36421016e-05
1.67727945e-05
1.19744862e-05
8.60191244e-06
6.20893226e-06
4.49807812e-06
3.2690468e-06
2.38291683e-06
1.74200787e-06
1.27732105e-06
9.39389054e-07
6.92842253e-07
5.12380719e-07
3.79875006e-07
2.82269533e-07
2.10197132e-07
1.5685641e-07
1.17291812e-07
8.7881731e-08
6.59719061e-08
4.96151361e-08
3.73797824e-08
2.82097423e-08
2.13242726e-08
1.61450451e-08
1.22426772e-08
9.29778037e-09
7.07243236e-09
5.38787036e-09
4.10990168e-09
3.13950226e-09
2.40184664e-09
1.84054821e-09
1.4129156e-09
1.08661489e-09
8.37247696e-10
6.46379807e-10
5.00070433e-10
3.87760957e-10
3.01431542e-10
2.34980108e-10
1.83770027e-10
1.44282152e-10
1.13834222e-10
9.03621612e-11
7.22837274e-11
5.83638307e-11
4.76946635e-11
3.95512647e-11
3.33698484e-11
2.87266734e-11
2.53154082e-11
2.28984022e-11
2.12724623e-11
2.02932905e-11
1.98476782e-11
1.98626199e-11
2.02585916e-11
2.09894205e-11
2.20027075e-11
2.32818077e-11
2.47733285e-11
2.64277172e-11
2.82359629e-11
3.01587365e-11
3.21850461e-11
3.42587979e-11
3.63758461e-11
3.8513025e-11
4.06571182e-11
4.27763752e-11
4.47870491e-11
4.68091287e-11
4.88752724e-11
5.09143847e-11
5.29279189e-11
5.49037604e-11
5.68328902e-11
5.86902332e-11
6.04530584e-11
6.21007511e-11
6.36239365e-11
6.50324381e-11
6.63484253e-11
6.7599739e-11
6.88144574e-11
7.00147039e-11
7.12111069e-11
7.24018335e-11
7.35778728e-11
7.47378601e-11
7.58744958e-11
7.68337007e-11
7.76582047e-11
7.8346548e-11
7.88819643e-11
7.92522679e-11
7.94535357e-11
7.94884287e-11
7.93640167e-11
7.90902242e-11
7.86788805e-11
7.81432506e-11
7.74978945e-11
7.67587033e-11
7.59428454e-11
7.50682494e-11
7.41524099e-11
7.32114104e-11
7.22624757e-11
7.12747967e-11
7.0277563e-11
6.92628598e-11
6.82263915e-11
6.7167927e-11
6.60904903e-11
6.49993842e-11
6.39012251e-11
6.28035249e-11
6.17156155e-11
6.06523354e-11
5.96432513e-11
5.87545055e-11
5.81383153e-11
8.01527548e-11
2.63486107e-10
5.47063458e-10
9.62627434e-10
1.54647419e-09
2.3325364e-09
3.3492768e-09
4.63108568e-09
6.20745369e-09
8.11839716e-09
1.03933352e-08
1.3076972e-08
1.61983168e-08
1.98048035e-08
2.39327326e-08
2.86212035e-08
3.39180841e-08
3.98564123e-08
4.64987547e-08
5.38729032e-08
6.20394392e-08
7.10438263e-08
8.09339495e-08
9.17883321e-08
1.03637445e-07
1.16596533e-07
1.30706445e-07
1.46114507e-07
1.62874802e-07
1.81147393e-07
2.01020865e-07
2.22634445e-07
2.46090723e-07
2.71515133e-07
2.99048438e-07
3.28826509e-07
3.61053288e-07
3.95891088e-07
4.33610886e-07
4.74405257e-07
5.1858675e-07
5.66371765e-07
6.18067835e-07
6.73842746e-07
7.34169737e-07
7.99257475e-07
8.69455831e-07
9.45167918e-07
1.02684387e-06
1.11498402e-06
1.21012706e-06
1.31287458e-06
1.42387887e-06
1.54388102e-06
1.673686e-06
1.81418714e-06
1.96630297e-06
2.13098143e-06
2.30913454e-06
2.50165197e-06
2.70937445e-06
2.93314401e-06
3.17383595e-06
3.43242543e-06
3.7101075e-06
4.00815597e-06
4.32837307e-06
4.67272298e-06
5.0437244e-06
5.4439398e-06
5.87625817e-06
6.34345829e-06
6.84804447e-06
7.39288467e-06
7.97966837e-06
8.61239306e-06
9.29152152e-06
1.0021431e-05
1.08057788e-05
1.16493894e-05
1.25571748e-05
1.35347813e-05
1.45886901e-05
1.57253868e-05
1.69517733e-05
1.82746869e-05
1.97024101e-05
2.12429307e-05
2.29059409e-05
2.47036496e-05
2.66496789e-05
2.87608207e-05
3.10565748e-05
3.35595695e-05
3.62959917e-05
3.92960167e-05
4.25941859e-05
4.6230611e-05
5.0251441e-05
5.47113276e-05
5.96722467e-05
6.52057543e-05
7.13944231e-05
7.83359458e-05
8.61424618e-05
9.49522099e-05
0.000104932225
0.000116282364
0.000129254317
0.000144148457
0.000161328165
0.000181225786
0.000204351445
0.000231298298
0.000262732202
0.000299365926
0.000341913533
0.000390999387
0.000446996614
0.000509766942
0.00057831228
0.000650325585
0.000721802726
0.000787055592
0.000839618386
0.00087392679
0.000886955727
0.000878722631
0.000851784655
0.000810105931
0.000757944165
0.000699089593
0.000636745133
0.000573333956
0.000510396067
0.000448984771
0.000389515948
0.000332158749
0.000277002452
0.000224332958
0.000176389276
0.000133505428
9.67083238e-05
6.77835976e-05
4.71203485e-05
3.29707996e-05
2.32653805e-05
1.65323876e-05
1.18177965e-05
8.49835739e-06
6.1389976e-06
4.45036185e-06
3.23630185e-06
2.36030372e-06
1.72639251e-06
1.26652351e-06
9.31885301e-07
6.87595008e-07
5.08687913e-07
3.77265012e-07
2.80418631e-07
2.08878862e-07
1.55913961e-07
1.16615787e-07
8.73954097e-08
6.56211818e-08
4.936146e-08
3.71957683e-08
2.80758861e-08
2.12266395e-08
1.60736507e-08
1.21903456e-08
9.25934413e-09
7.04419492e-09
5.367073e-09
4.09447769e-09
3.12808212e-09
2.39338664e-09
1.83426993e-09
1.40825217e-09
1.08314875e-09
8.34670362e-10
6.44462414e-10
4.98644014e-10
3.8670203e-10
3.0064893e-10
2.34404186e-10
1.83347992e-10
1.43976884e-10
1.13620539e-10
9.02167585e-11
7.21918019e-11
5.83103974e-11
4.76728359e-11
3.95564176e-11
3.33959199e-11
2.8768233e-11
2.53698959e-11
2.29661393e-11
2.13516582e-11
2.03823165e-11
1.9944978e-11
1.99685439e-11
2.03726781e-11
2.11094728e-11
2.21289258e-11
2.34150611e-11
2.49134227e-11
2.65716873e-11
2.83824632e-11
3.030967e-11
3.23414555e-11
3.44198753e-11
3.65380334e-11
3.86755434e-11
4.08219065e-11
4.29446802e-11
4.49520101e-11
4.69750141e-11
4.90422394e-11
5.10779385e-11
5.30882214e-11
5.50593915e-11
5.69829908e-11
5.88351376e-11
6.05931866e-11
6.22363757e-11
6.37554408e-11
6.51604175e-11
6.64733607e-11
6.77216112e-11
6.89326296e-11
7.01281221e-11
7.13185469e-11
7.25020731e-11
7.36698417e-11
7.48209202e-11
7.5954156e-11
7.68999709e-11
7.7714232e-11
7.83940167e-11
7.89216436e-11
7.92848424e-11
7.94797834e-11
7.95091672e-11
7.93800332e-11
7.91022352e-11
7.8687514e-11
7.81490409e-11
7.75012789e-11
7.67600186e-11
7.5942322e-11
7.5066007e-11
7.41484592e-11
7.32056623e-11
7.22562251e-11
7.12651953e-11
7.02664269e-11
6.92502206e-11
6.82124601e-11
6.71529818e-11
6.60748121e-11
6.49832227e-11
6.38847824e-11
6.27869538e-11
6.16990307e-11
6.06358221e-11
5.96268705e-11
5.87382945e-11
5.81223077e-11
2.92968211e-09
8.15539975e-09
1.46568878e-08
2.28978522e-08
3.29638477e-08
4.48155741e-08
5.84176715e-08
7.37673562e-08
9.07979072e-08
1.09460801e-07
1.2962432e-07
1.51198841e-07
1.74027721e-07
1.98025067e-07
2.23076522e-07
2.49123186e-07
2.76119821e-07
3.0401939e-07
3.32827215e-07
3.62521485e-07
3.93126373e-07
4.24664671e-07
4.57191232e-07
4.90824935e-07
5.25700586e-07
5.62101645e-07
6.00228881e-07
6.40455784e-07
6.82877039e-07
7.27766139e-07
7.75232978e-07
8.25418202e-07
8.7843884e-07
9.34520348e-07
9.93922564e-07
1.05699466e-06
1.12411239e-06
1.19559029e-06
1.27175931e-06
1.35274893e-06
1.43879398e-06
1.52994562e-06
1.62649203e-06
1.72846957e-06
1.83661131e-06
1.9511203e-06
2.07240845e-06
2.20085799e-06
2.33680012e-06
2.48056068e-06
2.63249377e-06
2.79309607e-06
2.9630035e-06
3.14302388e-06
3.33405397e-06
3.53702587e-06
3.75279303e-06
3.98213431e-06
4.22573274e-06
4.48426756e-06
4.75845675e-06
5.0492283e-06
5.35767884e-06
5.68530614e-06
6.033659e-06
6.40444589e-06
6.80002056e-06
7.22273868e-06
7.67546501e-06
8.16106548e-06
8.68264619e-06
9.24307695e-06
9.84491218e-06
1.04909331e-05
1.11828893e-05
1.1924742e-05
1.27173155e-05
1.35654425e-05
1.44733379e-05
1.54464467e-05
1.64902306e-05
1.76109327e-05
1.88153722e-05
2.01103286e-05
2.15028114e-05
2.30003017e-05
2.46114122e-05
2.63458557e-05
2.82147791e-05
3.0232047e-05
3.24139571e-05
3.47797193e-05
3.73513674e-05
4.01541234e-05
4.32167864e-05
4.65719557e-05
5.02566351e-05
5.4313626e-05
5.87920343e-05
6.37503038e-05
6.92537354e-05
7.53781248e-05
8.22114938e-05
8.98576632e-05
9.84349189e-05
0.000108090073
0.000118998659
0.00013137168
0.000145470655
0.000161604922
0.000180139171
0.000201506234
0.000226208739
0.000254817955
0.00028795737
0.000326266554
0.000370349647
0.000420671073
0.000477380428
0.000540044936
0.000607340535
0.000676659196
0.000743839794
0.000803321219
0.000849207913
0.000876781985
0.000883858855
0.000870914161
0.000840614967
0.000796799163
0.000743475487
0.000684119923
0.000621767803
0.000558681568
0.000496182703
0.00043529243
0.000376294662
0.000319372351
0.000264696484
0.000213862787
0.000167536432
0.000126241318
9.13243502e-05
6.42883873e-05
4.50122277e-05
3.16917112e-05
2.24653025e-05
1.60191181e-05
1.14823169e-05
8.27541364e-06
5.98809121e-06
4.34730901e-06
3.16560068e-06
2.31148525e-06
1.69269386e-06
1.24320365e-06
9.15661644e-07
6.76235432e-07
5.0068372e-07
3.71599065e-07
2.76397034e-07
2.06012462e-07
1.53863447e-07
1.15144123e-07
8.63361472e-08
6.48568852e-08
4.88084321e-08
3.67944583e-08
2.77838618e-08
2.10135731e-08
1.59177999e-08
1.20760772e-08
9.17539544e-09
6.98251723e-09
5.3216416e-09
4.06075324e-09
3.10311913e-09
2.37489252e-09
1.82054409e-09
1.39805585e-09
1.0755686e-09
8.29032541e-10
6.40268914e-10
4.95526238e-10
3.84387412e-10
2.98936018e-10
2.33143331e-10
1.82427549e-10
1.43313934e-10
1.13154691e-10
8.99071522e-11
7.199118e-11
5.81985432e-11
4.76294897e-11
3.95679656e-11
3.34516688e-11
2.88610671e-11
2.54937247e-11
2.31172346e-11
2.15262726e-11
2.05782909e-11
2.01603085e-11
2.02025088e-11
2.06242473e-11
2.13755694e-11
2.24083694e-11
2.37082101e-11
2.52196844e-11
2.68883567e-11
2.87076117e-11
3.06432635e-11
3.26839048e-11
3.47712801e-11
3.68949001e-11
3.9035457e-11
4.11849218e-11
4.33128373e-11
4.53429912e-11
4.73608992e-11
4.9409614e-11
5.14373409e-11
5.34393518e-11
5.54008004e-11
5.73132418e-11
5.91540069e-11
6.09009126e-11
6.25338118e-11
6.40437999e-11
6.54408896e-11
6.67467648e-11
6.79878701e-11
6.9190541e-11
7.03755438e-11
7.15528733e-11
7.27206722e-11
7.38704103e-11
7.5002338e-11
7.61283941e-11
7.7044409e-11
7.78365535e-11
7.84977885e-11
7.90084328e-11
7.93561039e-11
7.95372037e-11
7.95545266e-11
7.94150473e-11
7.91284655e-11
7.87063306e-11
7.8161609e-11
7.75085526e-11
7.67627324e-11
7.59409789e-11
7.50608713e-11
7.41395607e-11
7.31927616e-11
7.22358419e-11
7.12437178e-11
7.02418383e-11
6.92223532e-11
6.81817774e-11
6.71200905e-11
6.60403215e-11
6.49476748e-11
6.38486182e-11
6.27505106e-11
6.16625588e-11
6.05995059e-11
5.95908444e-11
5.87026435e-11
5.80870522e-11
1.09562888e-07
2.3049408e-07
3.45133176e-07
4.50820594e-07
5.47798694e-07
6.37562454e-07
7.21542267e-07
8.00538501e-07
8.74236454e-07
9.42459256e-07
1.00522644e-06
1.06317774e-06
1.11681504e-06
1.16712442e-06
1.21495298e-06
1.26138526e-06
1.30710192e-06
1.35282853e-06
1.39922675e-06
1.44658771e-06
1.4951771e-06
1.54516726e-06
1.5972463e-06
1.65221481e-06
1.71142388e-06
1.77608125e-06
1.84708379e-06
1.92478293e-06
2.00838147e-06
2.09751298e-06
2.19161524e-06
2.29064077e-06
2.39501785e-06
2.50568402e-06
2.62367467e-06
2.74980403e-06
2.884281e-06
3.02664953e-06
3.17616855e-06
3.33193202e-06
3.49368398e-06
3.66135921e-06
3.83576578e-06
4.01728598e-06
4.20761257e-06
4.40699145e-06
4.61556545e-06
4.83305363e-06
5.05906658e-06
5.29349006e-06
5.53672729e-06
5.789773e-06
6.05397575e-06
6.33080836e-06
6.62143589e-06
6.92654057e-06
7.24628426e-06
7.58060109e-06
7.9294911e-06
8.29331995e-06
8.67298425e-06
9.07011548e-06
9.48682592e-06
9.92557316e-06
1.03885455e-05
1.08779382e-05
1.139666e-05
1.1947484e-05
1.25338097e-05
1.3158853e-05
1.38258378e-05
1.45373687e-05
1.52954965e-05
1.61024431e-05
1.69596169e-05
1.7871099e-05
1.88386176e-05
1.98682623e-05
2.09657433e-05
2.21377484e-05
2.33914878e-05
2.47339995e-05
2.61723539e-05
2.77138662e-05
2.93656835e-05
3.11363805e-05
3.30357255e-05
3.50754574e-05
3.72696711e-05
3.96354791e-05
4.21929166e-05
4.49649988e-05
4.79774113e-05
5.12590865e-05
5.48424874e-05
5.87635786e-05
6.30629391e-05
6.77874329e-05
7.2990764e-05
7.87367346e-05
8.50959119e-05
9.21508956e-05
9.99979996e-05
0.00010874977
0.000118533127
0.00012950485
0.000141853795
0.000155806498
0.000171634424
0.000189654191
0.000210227956
0.000233777839
0.000260783741
0.000291770531
0.000327279844
0.000367818407
0.000413804859
0.00046544553
0.000522545319
0.000584237796
0.000648771103
0.000713196875
0.00077327407
0.000823766697
0.000859732881
0.00087765806
0.000876473764
0.000857123412
0.000822336334
0.000775734729
0.000720964105
0.000661023462
0.000598782279
0.000536277073
0.000474460107
0.000414392336
0.000356109425
0.000299876805
0.000247321755
0.000198798183
0.000154679554
0.000115921797
8.38789446e-05
5.95099848e-05
4.20943297e-05
2.98880615e-05
2.13220997e-05
1.52792411e-05
1.09950763e-05
7.94928225e-06
5.76660239e-06
4.1958473e-06
3.06162867e-06
2.23988012e-06
1.64323075e-06
1.2089184e-06
8.91759291e-07
6.59460749e-07
4.88838065e-07
3.63192317e-07
2.70419775e-07
2.01746625e-07
1.5080843e-07
1.12949364e-07
8.47548975e-08
6.37149469e-08
4.79815741e-08
3.61940386e-08
2.73466736e-08
2.06944094e-08
1.56842188e-08
1.19047336e-08
9.04945661e-09
6.889979e-09
5.25310277e-09
4.01006697e-09
3.06561599e-09
2.34710222e-09
1.79991475e-09
1.38272793e-09
1.0641705e-09
8.20553323e-10
6.33962598e-10
4.90839145e-10
3.80907275e-10
2.96358884e-10
2.31247275e-10
1.81047627e-10
1.42322901e-10
1.12456956e-10
8.94367456e-11
7.16944764e-11
5.80382097e-11
4.75711469e-11
3.95882996e-11
3.35379058e-11
2.90065598e-11
2.56879585e-11
2.33506706e-11
2.17944542e-11
2.08784869e-11
2.04910735e-11
2.05604493e-11
2.10084899e-11
2.1784051e-11
2.28363939e-11
2.4155434e-11
2.56835711e-11
2.73699045e-11
2.92055201e-11
3.11523948e-11
3.32033786e-11
3.53014139e-11
3.74367264e-11
3.95846963e-11
4.17368658e-11
4.3868259e-11
4.59201832e-11
4.79426396e-11
4.99684817e-11
5.19824753e-11
5.39704925e-11
5.59172012e-11
5.78140536e-11
5.96376738e-11
6.13669266e-11
6.29835151e-11
6.44793615e-11
6.58641463e-11
6.71586734e-11
6.83882833e-11
6.95778746e-11
7.07468269e-11
7.19043025e-11
7.30483525e-11
7.41709321e-11
7.52739691e-11
7.63914401e-11
7.72599145e-11
7.80195388e-11
7.86532508e-11
7.91384504e-11
7.94627865e-11
7.96230719e-11
7.96222503e-11
7.94671978e-11
7.9167382e-11
7.87340658e-11
7.8179909e-11
7.75188477e-11
7.67661246e-11
7.59382256e-11
7.5052376e-11
7.41253808e-11
7.31724182e-11
7.22048613e-11
7.12110505e-11
7.02041797e-11
6.91797667e-11
6.81349878e-11
6.70700086e-11
6.59878559e-11
6.48936331e-11
6.37936609e-11
6.26951456e-11
6.16071603e-11
6.05443486e-11
5.95361308e-11
5.86485025e-11
5.80334711e-11
3.79264631e-06
4.59864667e-06
4.68706313e-06
4.59254167e-06
4.51156595e-06
4.46437104e-06
4.45500629e-06
4.45398582e-06
4.43212177e-06
4.38846981e-06
4.33493173e-06
4.28572679e-06
4.24353989e-06
4.2144338e-06
4.20147964e-06
4.20492616e-06
4.22293997e-06
4.25524561e-06
4.30024808e-06
4.35302923e-06
4.41063213e-06
4.47417751e-06
4.54897742e-06
4.64120177e-06
4.75694837e-06
4.89738378e-06
5.06028458e-06
5.23588089e-06
5.41650842e-06
5.59781445e-06
5.78025806e-06
5.96820664e-06
6.16749687e-06
6.38346932e-06
6.6185921e-06
6.87130368e-06
7.1360131e-06
7.40598473e-06
7.67657203e-06
7.94646799e-06
8.2182129e-06
8.49554193e-06
8.78329576e-06
9.08353745e-06
9.39960367e-06
9.72977226e-06
1.00705767e-05
1.0418203e-05
1.07706543e-05
1.11287366e-05
1.14955364e-05
1.18752815e-05
1.2271776e-05
1.26873768e-05
1.31220034e-05
1.35736276e-05
1.40393626e-05
1.45170632e-05
1.5006289e-05
1.55084468e-05
1.60265482e-05
1.65652073e-05
1.71292781e-05
1.77218038e-05
1.83452971e-05
1.90013237e-05
1.96925534e-05
2.04221365e-05
2.11941647e-05
2.20117897e-05
2.28776327e-05
2.37929361e-05
2.475821e-05
2.57747716e-05
2.68440517e-05
2.79717863e-05
2.91628659e-05
3.04264583e-05
3.17713103e-05
3.3206683e-05
3.47414916e-05
3.63835661e-05
3.81399003e-05
4.00177509e-05
4.20242414e-05
4.41698176e-05
4.64663419e-05
4.89288712e-05
5.15761411e-05
5.44302851e-05
5.75165107e-05
6.08627871e-05
6.44993742e-05
6.84597006e-05
7.2780522e-05
7.75018772e-05
8.26688373e-05
8.83338435e-05
9.45566155e-05
0.000101406772
0.000108963312
0.000117317837
0.000126576872
0.000136862868
0.00014831057
0.00016108616
0.000175395561
0.000191480498
0.000209618465
0.000230122258
0.000253332042
0.000279640298
0.000309475118
0.000343272648
0.000381432811
0.000424246417
0.000471860114
0.00052412137
0.000580386231
0.000639258271
0.000698577567
0.000755169822
0.000804955118
0.000843286545
0.000866599313
0.000872774185
0.000861975029
0.000835356706
0.000795607126
0.000746050798
0.000689879059
0.000629427324
0.000567552965
0.000505994269
0.000445102356
0.000386224275
0.000328910315
0.000275387143
0.000225575252
0.000179803883
0.000138733535
0.000103522745
7.52128753e-05
5.39690824e-05
3.86376241e-05
2.77026312e-05
1.99144104e-05
1.43580068e-05
1.03837427e-05
7.53531906e-06
5.48439848e-06
4.00252609e-06
2.92905727e-06
2.14861805e-06
1.58021624e-06
1.16512445e-06
8.61113774e-07
6.37881721e-07
4.73552538e-07
3.52312557e-07
2.6266056e-07
1.96199241e-07
1.46829456e-07
1.10086894e-07
8.26899693e-08
6.22217874e-08
4.68993237e-08
3.54074203e-08
2.67733996e-08
2.02755573e-08
1.53774512e-08
1.16795484e-08
8.88383185e-09
6.76826749e-09
5.16275171e-09
3.94331315e-09
3.01620055e-09
2.31047086e-09
1.77271471e-09
1.36251227e-09
1.04913318e-09
8.09363837e-10
6.256405e-10
4.84655587e-10
3.76316456e-10
2.92958256e-10
2.28746655e-10
1.79232642e-10
1.41024036e-10
1.11543545e-10
8.88182538e-11
7.13106618e-11
5.78380496e-11
4.75055975e-11
3.96237219e-11
3.36595087e-11
2.92092706e-11
2.59569393e-11
2.36700078e-11
2.21602181e-11
2.12865718e-11
2.09404569e-11
2.10439567e-11
2.15261132e-11
2.23369559e-11
2.3415403e-11
2.47579824e-11
2.63037163e-11
2.80144327e-11
2.98756044e-11
3.18368266e-11
3.38979597e-11
3.60059875e-11
3.8159233e-11
4.03202528e-11
4.24747946e-11
4.46065369e-11
4.66697592e-11
4.87003674e-11
5.07126202e-11
5.27086432e-11
5.46767327e-11
5.66036365e-11
5.84810661e-11
6.02821214e-11
6.19871827e-11
6.35812775e-11
6.50578326e-11
6.64257068e-11
6.7704259e-11
6.89175793e-11
7.00889828e-11
7.12361171e-11
7.23669302e-11
7.34793133e-11
7.45658324e-11
7.56299045e-11
7.67414825e-11
7.75407041e-11
7.82591677e-11
7.88571932e-11
7.93089353e-11
7.96024845e-11
7.97352967e-11
7.97105199e-11
7.9534894e-11
7.92175778e-11
7.8769457e-11
7.82027901e-11
7.75311003e-11
7.67692016e-11
7.59331303e-11
7.50396527e-11
7.41051327e-11
7.31441972e-11
7.21664714e-11
7.11668984e-11
7.01531524e-11
6.91222586e-11
6.80719908e-11
6.70027208e-11
6.59174651e-11
6.48211938e-11
6.3720039e-11
6.26210094e-11
6.15330005e-11
6.04705246e-11
5.94629089e-11
5.85760523e-11
5.7961749e-11
8.91103264e-05
5.05781293e-05
3.38936253e-05
2.6809665e-05
2.37411924e-05
2.16458671e-05
2.03751892e-05
1.90005313e-05
1.73191512e-05
1.57179839e-05
1.44242421e-05
1.3481827e-05
1.27420936e-05
1.22002835e-05
1.1814931e-05
1.15244331e-05
1.13005398e-05
1.11445825e-05
1.10318041e-05
1.09212623e-05
1.08127161e-05
1.07379154e-05
1.07321633e-05
1.08175923e-05
1.09980594e-05
1.12492565e-05
1.15315786e-05
1.17925362e-05
1.20146378e-05
1.22090951e-05
1.24030236e-05
1.26243367e-05
1.28922211e-05
1.32128883e-05
1.35777184e-05
1.3964248e-05
1.43437548e-05
1.46976769e-05
1.50250981e-05
1.5338237e-05
1.56551237e-05
1.5990113e-05
1.63531345e-05
1.6743604e-05
1.71630667e-05
1.75993264e-05
1.80372309e-05
1.84675075e-05
1.88911459e-05
1.93170664e-05
1.97569351e-05
2.02208448e-05
2.07141343e-05
2.12363453e-05
2.17806929e-05
2.23380199e-05
2.29006565e-05
2.34659057e-05
2.40364258e-05
2.46183312e-05
2.5219357e-05
2.58500782e-05
2.65175773e-05
2.72224967e-05
2.79643469e-05
2.87426952e-05
2.95602635e-05
3.04208134e-05
3.1329402e-05
3.22883473e-05
3.32988342e-05
3.43596961e-05
3.54697164e-05
3.66302221e-05
3.784436e-05
3.91217922e-05
4.04723128e-05
4.19086063e-05
4.34422946e-05
4.50844964e-05
4.68443766e-05
4.87290635e-05
5.07444154e-05
5.28969742e-05
5.51939582e-05
5.76477861e-05
6.02729456e-05
6.30884284e-05
6.61176061e-05
6.93872345e-05
7.29268905e-05
7.67683167e-05
8.09452079e-05
8.54939187e-05
9.04541394e-05
9.5869189e-05
0.000101787273
0.000108265552
0.000115367675
0.000123167982
0.000131752233
0.000141218543
0.000151680126
0.000163264519
0.000176105281
0.000190375621
0.000206291745
0.000224100609
0.00024407393
0.000266505574
0.000291694661
0.000319994301
0.00035176804
0.000387351938
0.000426999184
0.000470788745
0.000518639762
0.000570113921
0.000624242523
0.00067927205
0.000732923251
0.000782060494
0.000822952547
0.000851456572
0.000865213471
0.000862966351
0.000845707777
0.000814314878
0.000771422504
0.000720130423
0.000663294739
0.000602627029
0.000541283557
0.000480699223
0.000420557168
0.000362816308
0.000307731001
0.000256449914
0.000208886376
0.00016547148
0.000127048012
9.47833853e-05
6.92546305e-05
5.01172459e-05
3.61665998e-05
2.61027708e-05
1.88661614e-05
1.36633616e-05
9.91851577e-06
7.21971781e-06
5.26860455e-06
3.85416425e-06
2.8266731e-06
2.07794843e-06
1.53125586e-06
1.13100342e-06
8.37171489e-07
6.20952172e-07
4.61512615e-07
3.43712339e-07
2.56503482e-07
1.91787479e-07
1.43658768e-07
1.07801924e-07
8.1039029e-08
6.10261376e-08
4.60315158e-08
3.47758916e-08
2.63126296e-08
1.99385499e-08
1.51303894e-08
1.14980296e-08
8.75020402e-09
6.67009637e-09
5.08982362e-09
3.88935815e-09
2.97623518e-09
2.28083016e-09
1.75069673e-09
1.34614256e-09
1.03695402e-09
8.00299039e-10
6.18895818e-10
4.79643015e-10
3.72598022e-10
2.90208202e-10
2.26725369e-10
1.77764112e-10
1.39975529e-10
1.10813861e-10
8.83294185e-11
7.10080183e-11
5.76809483e-11
4.74608275e-11
3.96661725e-11
3.37724046e-11
2.93835403e-11
2.61836755e-11
2.39404308e-11
2.24703064e-11
2.16315401e-11
2.13168668e-11
2.14489189e-11
2.19584314e-11
2.27960927e-11
2.38972497e-11
2.52599294e-11
2.68215183e-11
2.85479336e-11
3.04259671e-11
3.24009031e-11
3.44725957e-11
3.65895918e-11
3.87518955e-11
4.09206263e-11
4.30792218e-11
4.52127403e-11
4.72802778e-11
4.93128266e-11
5.13174339e-11
5.33013701e-11
5.5254564e-11
5.71653189e-11
5.90255712e-11
6.08082809e-11
6.2494259e-11
6.40702035e-11
6.55306847e-11
6.68842489e-11
6.81492837e-11
6.93486796e-11
7.05044421e-11
7.16329146e-11
7.2741279e-11
7.38273887e-11
7.48842319e-11
7.59152395e-11
7.70292007e-11
7.77633768e-11
7.8451043e-11
7.90207207e-11
7.94454311e-11
7.9714042e-11
7.98246124e-11
7.97804501e-11
7.95881717e-11
7.92566805e-11
7.87965559e-11
7.82197337e-11
7.75394056e-11
7.67700422e-11
7.59273206e-11
7.5027641e-11
7.40870229e-11
7.31197319e-11
7.21349292e-11
7.11297441e-11
7.01103219e-11
6.90742247e-11
6.80195784e-11
6.69468963e-11
6.58591828e-11
6.47612998e-11
6.36592248e-11
6.25598079e-11
6.14718069e-11
6.04096299e-11
5.9402526e-11
5.85163122e-11
5.79026049e-11
8.50197854e-20
6.93566913e-20
4.83698111e-20
3.31652908e-20
2.26461148e-20
1.54332163e-20
1.04582859e-20
7.09344208e-21
5.07895779e-21
3.86705423e-21
2.94747981e-21
2.23937193e-21
1.70909665e-21
1.34931343e-21
9.5230052e-22
8.22808281e-22
8.07406985e-22
8.11577013e-22
6.82800304e-22
5.95901978e-22
5.43259058e-22
5.42548186e-22
4.58533907e-22
3.98245766e-22
3.23042097e-22
3.84677423e-22
3.77921281e-22
3.66837525e-22
2.95976044e-22
2.41430725e-22
3.26697734e-22
3.58763376e-21
2.42596607e-19
1.7117498e-17
1.21576523e-15
8.70939015e-14
6.33814943e-12
4.73675048e-10
3.76159014e-08
3.25103867e-06
2.48844504e-20
3.22075276e-20
3.04454277e-20
2.55184414e-20
2.04842327e-20
1.60173397e-20
1.25939593e-20
9.62849047e-21
7.9149186e-21
6.08725576e-21
4.59566705e-21
3.67825243e-21
2.88777212e-21
2.11868249e-21
1.62217623e-21
1.44765596e-21
1.30328063e-21
1.13681112e-21
1.04323279e-21
1.06622427e-21
9.54734623e-22
7.46724754e-22
5.1454311e-22
5.54212469e-22
4.7832925e-22
4.73703499e-22
3.83533864e-22
3.98076633e-22
3.72295193e-22
3.83798571e-22
2.99621306e-22
8.10473173e-22
4.00440677e-20
2.79481646e-18
1.95680348e-16
1.36750557e-14
9.52437245e-13
6.58505756e-11
4.48224039e-09
2.88408923e-07
3.42837396e-21
6.13724557e-21
8.51053396e-21
9.67313797e-21
1.09433546e-20
1.0943165e-20
9.8704742e-21
8.76807817e-21
7.52027034e-21
6.45234985e-21
5.47506482e-21
4.38390671e-21
3.65027522e-21
3.20172629e-21
2.80241122e-21
2.20925842e-21
1.94365254e-21
1.89465892e-21
1.52701427e-21
1.34355673e-21
1.07995843e-21
1.02062838e-21
7.88140386e-22
6.21218871e-22
6.2449523e-22
5.92538403e-22
5.98071544e-22
4.99913443e-22
5.05479812e-22
4.69716038e-22
4.35438369e-22
4.78690929e-22
7.25453003e-21
4.75198017e-19
3.19119013e-17
2.10193008e-15
1.3437262e-13
8.21898324e-12
4.65108935e-10
2.29491956e-08
6.19218055e-22
1.52279176e-21
2.50576564e-21
3.31451837e-21
4.07618032e-21
4.9157806e-21
5.79253807e-21
6.18088476e-21
6.22043546e-21
5.77344749e-21
5.44405219e-21
4.81241331e-21
4.20397506e-21
3.60758839e-21
3.18850214e-21
2.65232038e-21
2.27118553e-21
2.00767605e-21
1.71451105e-21
1.51899872e-21
1.39014286e-21
1.23849326e-21
1.06111382e-21
9.13633528e-22
8.33339463e-22
7.81186089e-22