/*--------------------------------*- C++ -*----------------------------------*\
  =========                 |
  \\      /  F ield         | OpenFOAM: The Open Source CFD Toolbox
   \\    /   O peration     | Website:  https://openfoam.org
    \\  /    A nd           | Version:  6
     \\/     M anipulation  |
\*---------------------------------------------------------------------------*/
FoamFile
{
    version     2.0;
    format      ascii;
    class       volScalarField;
    location    "25000";
    object      CH3CHO;
}
// * * * * * * * * * * * * * * * * * * * * * * * * * * * * * * * * * * * * * //

dimensions      [0 0 0 0 0 0 0];

internalField   nonuniform List<scalar> 
44870
(
2.59208734e-101
3.2019459e-99
3.93583933e-97
4.89256396e-95
6.15561709e-93
7.84344956e-91
1.01282372e-88
1.32630688e-86
1.76263311e-84
2.37894078e-82
3.26287815e-80
4.55047988e-78
6.45584219e-76
9.32060973e-74
1.36965439e-71
2.04882572e-69
3.11952257e-67
4.83415504e-65
7.62191887e-63
1.22241796e-60
1.99332021e-58
3.30366217e-56
5.56202475e-54
9.5088435e-52
1.64972805e-49
2.90348099e-47
5.17986702e-45
9.36343895e-43
1.71322082e-40
3.17127784e-38
5.92892278e-36
1.11851525e-33
2.1229528e-31
4.04532233e-29
7.69087445e-27
1.44998166e-24
2.67040257e-22
4.70973466e-20
7.4919051e-18
1.00929303e-15
1.87162009e-101
2.2978956e-99
2.81064044e-97
3.48589799e-95
4.39346156e-93
5.63783355e-91
7.38098703e-89
9.87606805e-87
1.35273361e-84
1.89886292e-82
2.73390432e-80
4.03826218e-78
6.1188898e-76
9.50596053e-74
1.51260862e-71
2.46304152e-69
4.09789263e-67
6.95868638e-65
1.20401861e-62
2.12074496e-60
3.79636588e-58
6.90310749e-56
1.27291484e-53
2.38035966e-51
4.50621017e-49
8.6418837e-47
1.67548061e-44
3.28885362e-42
6.51940896e-40
1.30825437e-37
2.64840621e-35
5.42774226e-33
1.12066838e-30
2.34263431e-28
4.92013805e-26
1.04369293e-23
2.20455169e-21
4.64830542e-19
9.16482175e-17
1.71997104e-14
8.03704131e-102
9.61405452e-100
1.15762799e-97
1.44031585e-95
1.86693163e-93
2.53515229e-91
3.6202026e-89
5.44179546e-87
8.59362936e-85
1.42074147e-82
2.44608274e-80
4.36056944e-78
8.00273215e-76
1.50431684e-73
2.88228233e-71
5.61458464e-69
1.10736024e-66
2.20903541e-64
4.44413031e-62
9.01581616e-60
1.8407613e-57
3.78518052e-55
7.8225114e-53
1.62790139e-50
3.40165751e-48
7.16166843e-46
1.51299104e-43
3.22346763e-41
6.88665986e-39
1.48607359e-36
3.21283206e-34
7.0293247e-32
1.53872806e-29
3.4182649e-27
7.5912762e-25
1.71583785e-22
3.87222805e-20
8.96555267e-18
1.99243273e-15
4.55018708e-13
1.67066813e-102
1.99743968e-100
2.70709607e-98
4.25122575e-96
7.61593705e-94
1.51094473e-91
3.21585739e-89
7.15309807e-87
1.63156871e-84
3.76884876e-82
8.74636221e-80
2.02926882e-77
4.69215149e-75
1.07986677e-72
2.47079713e-70
5.62159025e-68
1.27155395e-65
2.86179212e-63
6.40801325e-61
1.42884541e-58
3.17464795e-56
7.03391813e-54
1.55451147e-51
3.43098195e-49
7.56062028e-47
1.66626076e-44
3.66985971e-42
8.09337656e-40
1.78478144e-37
3.94742446e-35
8.73256552e-33
1.94046385e-30
4.31277556e-28
9.64325744e-26
2.15644946e-23
4.84886445e-21
1.08741664e-18
2.44216227e-16
5.30752767e-14
1.12198339e-11
2.14972447e-103
6.63607845e-101
2.2327675e-98
7.47425147e-96
2.41374881e-93
7.47572759e-91
2.22314946e-88
6.36755806e-86
1.76266874e-83
4.73200213e-81
1.23592517e-78
3.14995104e-76
7.85525355e-74
1.92144611e-71
4.62037652e-69
1.09439294e-66
2.55797384e-64
5.90935372e-62
1.35121284e-59
3.06197253e-57
6.88422524e-55
1.53717551e-52
3.41181167e-50
7.53326573e-48
1.65582147e-45
3.62548142e-43
7.91171521e-41
1.7213275e-38
3.73605407e-36
8.09103346e-34
1.74921484e-31
3.77578509e-29
8.14058875e-27
1.75320625e-24
3.77280388e-22
8.11262637e-20
1.74354895e-17
3.74504834e-15
8.04044527e-13
1.73469421e-10
3.22283562e-14
1.34988322e-13
3.53155839e-13
7.63958528e-13
1.4843959e-12
2.67755212e-12
4.55794985e-12
7.41056957e-12
1.15910473e-11
1.75847496e-11
2.59839812e-11
3.76117976e-11
5.34452609e-11
7.48230449e-11
1.03353405e-10
1.41052499e-10
1.90489029e-10
2.54624561e-10
3.37502971e-10
4.4352113e-10
5.78629531e-10
7.49617048e-10
9.64964628e-10
1.23501368e-09
1.57213285e-09
1.99170181e-09
2.51016768e-09
3.15198553e-09
3.93845804e-09
4.9051444e-09
6.08510006e-09
7.52220567e-09
9.26763384e-09
1.13736719e-08
1.39128778e-08
1.6950568e-08
2.05809299e-08
2.48870463e-08
2.99830327e-08
3.59770387e-08
4.30056023e-08
5.12102155e-08
6.07487569e-08
7.17744295e-08
8.44827111e-08
9.90245456e-08
1.15562775e-07
1.34258642e-07
1.55272884e-07
1.78769497e-07
2.04910581e-07
2.33860951e-07
2.65773634e-07
3.00794971e-07
3.39042465e-07
3.80609485e-07
4.25543759e-07
4.73854943e-07
5.25507515e-07
5.80432356e-07
6.38534558e-07
6.99698114e-07
7.63806108e-07
8.30731191e-07
9.00377224e-07
9.72643771e-07
1.04748227e-06
1.12483432e-06
1.20467886e-06
1.28694822e-06
1.37156274e-06
1.45838445e-06
1.54721061e-06
1.63785236e-06
1.73000519e-06
1.82356096e-06
1.9180814e-06
2.01347391e-06
2.10956137e-06
2.20621515e-06
2.30331606e-06
2.40076117e-06
2.49847422e-06
2.59637077e-06
2.69436399e-06
2.79233219e-06
2.8901591e-06
2.98766136e-06
3.08464453e-06
3.18089682e-06
3.27617818e-06
3.37025164e-06
3.46286651e-06
3.55378376e-06
3.64278257e-06
3.72966768e-06
3.81427119e-06
3.89645866e-06
3.97612706e-06
4.05321732e-06
4.12768414e-06
4.19952678e-06
4.26876669e-06
4.33547493e-06
4.3997642e-06
4.46182999e-06
4.52196699e-06
4.58059954e-06
4.63839351e-06
4.69630203e-06
4.75570347e-06
4.81853589e-06
4.88749503e-06
4.96629471e-06
5.05986762e-06
5.17440715e-06
5.31692372e-06
5.49375132e-06
5.70717718e-06
5.94930686e-06
6.1931152e-06
6.38428008e-06
6.44266771e-06
6.28464014e-06
5.86452449e-06
5.20872473e-06
4.40868074e-06
3.57723307e-06
2.8048107e-06
2.14168222e-06
1.60310448e-06
1.18265102e-06
8.64074716e-07
6.28534653e-07
4.57857954e-07
3.36951061e-07
2.52941315e-07
1.86714935e-07
1.33722092e-07
9.71443514e-08
7.01601517e-08
5.04892225e-08
3.62340821e-08
2.59987369e-08
1.87090919e-08
1.35061701e-08
9.77781036e-09
7.09706245e-09
5.16377595e-09
3.76572131e-09
2.75214433e-09
2.01555098e-09
1.47903527e-09
1.08740785e-09
8.0095083e-10
5.91008667e-10
4.3686026e-10
3.23473292e-10
2.39921173e-10
1.78247627e-10
1.32647206e-10
9.88755402e-11
7.38237794e-11
5.52107229e-11
4.13595976e-11
3.10358566e-11
2.33290773e-11
1.75668075e-11
1.32515972e-11
1.0014897e-11
7.58325094e-12
5.75346657e-12
4.37435826e-12
3.33331857e-12
2.54607629e-12
1.94949922e-12
1.49671435e-12
1.15249425e-12
8.90343015e-13
6.90331541e-13
5.37449257e-13
4.20371138e-13
3.30540032e-13
2.61483417e-13
2.08297593e-13
1.67256268e-13
1.35522529e-13
1.10939347e-13
9.18675217e-14
7.70549221e-14
6.55306065e-14
5.65661533e-14
4.95928114e-14
4.41938186e-14
4.00314738e-14
3.6846585e-14
3.4451611e-14
3.27289026e-14
3.16006175e-14
3.08907117e-14
3.04886611e-14
3.03110967e-14
3.03230449e-14
3.04674154e-14
3.07428029e-14
3.11225997e-14
3.16155416e-14
3.22156228e-14
3.28586433e-14
3.35655354e-14
3.42967504e-14
3.50503551e-14
3.57952238e-14
3.65221689e-14
3.72293076e-14
3.79032044e-14
3.85210019e-14
3.89727029e-14
3.9460758e-14
4.00789025e-14
4.06923147e-14
4.13343429e-14
4.20068975e-14
4.27001556e-14
4.33852666e-14
4.40342363e-14
4.46218176e-14
4.51340724e-14
4.55846038e-14
4.60117313e-14
4.64680435e-14
4.70100648e-14
4.76875284e-14
4.85331356e-14
4.95590479e-14
5.07632583e-14
5.21473168e-14
5.36970921e-14
5.52281518e-14
5.67708499e-14
5.83082032e-14
5.98007864e-14
6.12128314e-14
6.2518397e-14
6.37002561e-14
6.47481778e-14
6.56582653e-14
6.64332669e-14
6.70834846e-14
6.76279336e-14
6.80953344e-14
6.85242546e-14
6.89614183e-14
6.9457376e-14
7.00612895e-14
7.08281377e-14
7.16235466e-14
7.25244981e-14
7.34768734e-14
7.44225498e-14
7.53088584e-14
7.60934081e-14
7.67472437e-14
7.72553473e-14
7.76152698e-14
7.78351241e-14
7.79320761e-14
7.79324009e-14
7.78742502e-14
7.7813223e-14
6.6502809e-13
2.39674002e-12
5.47042825e-12
1.07336762e-11
1.93821703e-11
3.28933341e-11
5.29958006e-11
8.1981741e-11
1.22655854e-10
1.7893932e-10
2.55544442e-10
3.59014279e-10
4.96833679e-10
6.78970942e-10
9.16802876e-10
1.22395415e-09
1.61702737e-09
2.11434909e-09
2.73977816e-09
3.51779349e-09
4.47982973e-09
5.6599481e-09
7.09656244e-09
8.83615778e-09
1.09224135e-08
1.34151384e-08
1.63655555e-08
1.98465261e-08
2.39169873e-08
2.86593543e-08
3.41436902e-08
4.04518851e-08
4.76564567e-08
5.58316437e-08
6.50489543e-08
7.53708047e-08
8.68670497e-08
9.95884056e-08
1.13604673e-07
1.28958222e-07
1.4571476e-07
1.63906942e-07
1.83582496e-07
2.04743493e-07
2.27460849e-07
2.5173028e-07
2.77577981e-07
3.05040722e-07
3.34166094e-07
3.65012614e-07
3.97645721e-07
4.32138992e-07
4.68568408e-07
5.07015683e-07
5.47563555e-07
5.90299382e-07
6.3530689e-07
6.82667091e-07
7.32448305e-07
7.84705704e-07
8.3947415e-07
8.9677116e-07
9.5659452e-07
1.01892866e-06
1.08375242e-06
1.15102474e-06
1.22072637e-06
1.29282054e-06
1.36728297e-06
1.44405579e-06
1.5230706e-06
1.60421713e-06
1.68734342e-06
1.77229885e-06
1.85885433e-06
1.94691464e-06
2.03611259e-06
2.12636475e-06
2.21750607e-06
2.30941297e-06
2.4019549e-06
2.49502695e-06
2.58854419e-06
2.68240921e-06
2.77651857e-06
2.87074181e-06
2.96494151e-06
3.05892936e-06
3.15249836e-06
3.24543302e-06
3.33748787e-06
3.42841944e-06
3.51798498e-06
3.60595253e-06
3.69211003e-06
3.77627077e-06
3.85827538e-06
3.93799756e-06
4.01534239e-06
4.09026044e-06
4.16271318e-06
4.23270918e-06
4.30028343e-06
4.36552327e-06
4.42855928e-06
4.48961004e-06
4.5489941e-06
4.6071721e-06
4.66485678e-06
4.72305642e-06
4.7832012e-06
4.84728304e-06
4.91804337e-06
4.99919308e-06
5.09556993e-06
5.2130956e-06
5.35819521e-06
5.5361318e-06
5.74749271e-06
5.9820998e-06
6.21053066e-06
6.3772972e-06
6.40429784e-06
6.2142567e-06
5.77006901e-06
5.10413475e-06
4.30787733e-06
3.48957349e-06
2.73405939e-06
2.08753514e-06
1.56321142e-06
1.15411495e-06
8.44266276e-07
6.15333444e-07
4.49514065e-07
3.32253359e-07
2.491601e-07
1.83080373e-07
1.31544075e-07
9.55900186e-08
6.9060655e-08
4.97260561e-08
3.57112071e-08
2.56499486e-08
1.84758972e-08
1.33483532e-08
9.67004882e-09
7.02296453e-09
5.11253133e-09
3.7301061e-09
2.7272839e-09
1.99813005e-09
1.46678436e-09
1.0787648e-09
7.94834807e-10
5.86668626e-10
4.33772867e-10
3.21271637e-10
2.38347447e-10
1.77120255e-10
1.31837899e-10
9.82934058e-11
7.34042544e-11
5.49078363e-11
4.1140543e-11
3.08771715e-11
2.32139474e-11
1.74831588e-11
1.31907429e-11
9.97057573e-12
7.55094134e-12
5.72989794e-12
4.3571616e-12
3.32078188e-12
2.53694116e-12
1.94283518e-12
1.49187209e-12
1.1489908e-12
8.87822777e-13
6.88533947e-13
5.3618334e-13
4.19496383e-13
3.29952596e-13
2.6110697e-13
2.08076647e-13
1.67150064e-13
1.35500062e-13
1.10977268e-13
9.19496464e-14
7.71704393e-14
6.56693156e-14
5.67223977e-14
4.97607272e-14
4.43713662e-14
4.02168884e-14
3.70377564e-14
3.46474389e-14
3.2930886e-14
3.18079416e-14
3.11004534e-14
3.07003549e-14
3.05239217e-14
3.05383997e-14
3.06854603e-14
3.09611151e-14
3.13427555e-14
3.1838304e-14
3.24422464e-14
3.30868923e-14
3.37941729e-14
3.45283474e-14
3.5285343e-14
3.6034686e-14
3.67628488e-14
3.74702189e-14
3.8146042e-14
3.87670254e-14
3.92129188e-14
3.97015429e-14
4.03239319e-14
4.09323187e-14
4.15701782e-14
4.22379273e-14
4.29258061e-14
4.36058861e-14
4.42502278e-14
4.48336692e-14
4.53425393e-14
4.57906775e-14
4.62163242e-14
4.66716122e-14
4.72123181e-14
4.78875535e-14
4.87296775e-14
4.97507013e-14
5.09486328e-14
5.23255066e-14
5.38741071e-14
5.5392031e-14
5.69245833e-14
5.84532655e-14
5.99375583e-14
6.13416816e-14
6.26399478e-14
6.38153058e-14
6.48575856e-14
6.57628775e-14
6.65338741e-14
6.71807938e-14
6.77225408e-14
6.81876897e-14
6.86146192e-14
6.90498145e-14
6.95435236e-14
7.01444979e-14
7.09113618e-14
7.16977499e-14
7.25946541e-14
7.35419475e-14
7.44821944e-14
7.53631566e-14
7.61426936e-14
7.6791995e-14
7.72961113e-14
7.76526065e-14
7.78695701e-14
7.79641295e-14
7.79625282e-14
7.79029329e-14
7.78413111e-14
2.50177598e-11
7.87707911e-11
1.61321976e-10
2.91975575e-10
4.87823792e-10
7.64701988e-10
1.14042671e-09
1.6390559e-09
2.29098352e-09
3.13702995e-09
4.22443795e-09
5.60923103e-09
7.34701053e-09
9.49804575e-09
1.2119656e-08
1.52733965e-08
1.90234154e-08
2.34369407e-08
2.85909482e-08
3.45613511e-08
4.14289863e-08
4.926672e-08
5.81412775e-08
6.81118962e-08
7.92245191e-08
9.15354305e-08
1.05074157e-07
1.19901671e-07
1.36025419e-07
1.53486019e-07
1.72285111e-07
1.92411175e-07
2.13822743e-07
2.36470117e-07
2.60282819e-07
2.85195433e-07
3.11143618e-07
3.38071174e-07
3.65938823e-07
3.9469507e-07
4.2431153e-07
4.54737801e-07
4.85958363e-07
5.17918367e-07
5.50679019e-07
5.84216916e-07
6.18555473e-07
6.53726721e-07
6.89763927e-07
7.26698804e-07
7.64556245e-07
8.0336641e-07
8.43163907e-07
8.8399762e-07
9.25933803e-07
9.6905924e-07
1.0134765e-06
1.05930011e-06
1.10664679e-06
1.15562827e-06
1.20634497e-06
1.25888417e-06
1.31330677e-06
1.36966523e-06
1.42797035e-06
1.48822001e-06
1.55042314e-06
1.61456643e-06
1.68064272e-06
1.7486345e-06
1.81852302e-06
1.89026991e-06
1.96381801e-06
2.03909746e-06
2.1159932e-06
2.19444603e-06
2.2742072e-06
2.35521365e-06
2.43733385e-06
2.52045646e-06
2.60446657e-06
2.68926447e-06
2.77475588e-06
2.86083596e-06
2.94738229e-06
3.03425321e-06
3.12127923e-06
3.20826868e-06
3.29499762e-06
3.38123313e-06
3.46673533e-06
3.55126575e-06
3.63459522e-06
3.71651191e-06
3.79682729e-06
3.87537701e-06
3.9520236e-06
4.02666163e-06
4.09921686e-06
4.16966136e-06
4.23797611e-06
4.30419234e-06
4.36837774e-06
4.43065715e-06
4.49120225e-06
4.55027987e-06
4.60826281e-06
4.66569516e-06
4.72338757e-06
4.78246363e-06
4.84445439e-06
4.9114529e-06
4.98625093e-06
5.07249087e-06
5.17470937e-06
5.29809704e-06
5.4476249e-06
5.6260379e-06
5.83012706e-06
6.04492396e-06
6.23643962e-06
6.34789104e-06
6.30702085e-06
6.05097505e-06
5.56004811e-06
4.87737776e-06
4.09264343e-06
3.3040796e-06
2.58510923e-06
1.97384646e-06
1.47957083e-06
1.09435696e-06
8.02892844e-07
5.87934153e-07
4.32361635e-07
3.22234746e-07
2.40577196e-07
1.75527067e-07
1.27225212e-07
9.22507906e-08
6.67066846e-08
4.80855904e-08
3.45952303e-08
2.49050165e-08
1.79759462e-08
1.30091321e-08
9.43798297e-09
6.86315832e-09
5.00187835e-09
3.65312216e-09
2.67349826e-09
1.96040941e-09
1.44023881e-09
1.06002441e-09
7.81565565e-10
5.77247065e-10
4.2706718e-10
3.16487278e-10
2.34925999e-10
1.74668137e-10
1.30076861e-10
9.70261925e-11
7.24906761e-11
5.42480248e-11
4.0663195e-11
3.053127e-11
2.29629153e-11
1.73007206e-11
1.30579875e-11
9.87386655e-12
7.480428e-12
5.67845252e-12
4.31961956e-12
3.29341195e-12
2.51699757e-12
1.92828156e-12
1.48130016e-12
1.14134324e-12
8.82323165e-13
6.84613106e-13
5.33423645e-13
4.1759097e-13
3.28675585e-13
2.60291911e-13
2.07601031e-13
1.6692378e-13
1.35456569e-13
1.11067402e-13
9.21372379e-14
7.74292069e-14
6.59819558e-14
5.70692423e-14
5.01353398e-14
4.47664533e-14
4.06271058e-14
3.74595382e-14
3.50810955e-14
3.33793116e-14
3.22666901e-14
3.1564435e-14
3.1167961e-14
3.09947832e-14
3.10144266e-14
3.11670415e-14
3.14447244e-14
3.18296736e-14
3.23307727e-14
3.29417904e-14
3.35906405e-14
3.43004618e-14
3.50402201e-14
3.58039154e-14
3.65618496e-14
3.72940437e-14
3.80029671e-14
3.86819327e-14
3.93093302e-14
3.97907111e-14
4.02745719e-14
4.08630345e-14
4.14614247e-14
4.20899143e-14
4.27472613e-14
4.3423606e-14
4.40924562e-14
4.47261674e-14
4.53001541e-14
4.58012823e-14
4.62437357e-14
4.6665626e-14
4.71181412e-14
4.76556265e-14
4.83258414e-14
4.91603122e-14
5.01706609e-14
5.13549069e-14
5.27163645e-14
5.4262879e-14
5.57512997e-14
5.72619789e-14
5.87718889e-14
6.02380989e-14
6.16248952e-14
6.29071786e-14
6.40682879e-14
6.50981867e-14
6.59929349e-14
6.67551026e-14
6.73947245e-14
6.79304616e-14
6.83905713e-14
6.88130237e-14
6.92437918e-14
6.97324739e-14
7.03267963e-14
7.1072995e-14
7.18598153e-14
7.27486497e-14
7.36848184e-14
7.46132089e-14
7.54824956e-14
7.62510762e-14
7.6890456e-14
7.73858353e-14
7.77348082e-14
7.79454176e-14
7.80347073e-14
7.8028851e-14
7.79660395e-14
7.79027685e-14
1.0052356e-09
2.50630173e-09
4.54441098e-09
7.23924382e-09
1.05757085e-08
1.45153363e-08
1.90935984e-08
2.44797586e-08
3.09059753e-08
3.86296651e-08
4.78731394e-08
5.8748321e-08
7.12257085e-08
8.52290709e-08
1.00659323e-07
1.17496473e-07
1.35762059e-07
1.55558754e-07
1.77020111e-07
2.00208733e-07
2.25098677e-07
2.51540459e-07
2.7935705e-07
3.08334499e-07
3.3835416e-07
3.6934011e-07
4.013052e-07
4.34316838e-07
4.68329739e-07
5.03329051e-07
5.3916741e-07
5.75622966e-07
6.12440977e-07
6.49387507e-07
6.86280432e-07
7.23015982e-07
7.59556684e-07
7.95924569e-07
8.32158371e-07
8.68292407e-07
9.0436691e-07
9.404145e-07
9.76501455e-07
1.01267282e-06
1.04908221e-06
1.08577174e-06
1.12279422e-06
1.16017033e-06
1.19788987e-06
1.23591902e-06
1.27422291e-06
1.31278802e-06
1.35163358e-06
1.39082597e-06
1.43047099e-06
1.4707085e-06
1.51169214e-06
1.55357513e-06
1.59649778e-06
1.6405786e-06
1.685921e-06
1.73259323e-06
1.78062784e-06
1.83002022e-06
1.88074305e-06
1.93276945e-06
1.9860978e-06
2.04074359e-06
2.09675516e-06
2.15419795e-06
2.21314834e-06
2.27367157e-06
2.33581327e-06
2.39958354e-06
2.46495026e-06
2.53188095e-06
2.60021825e-06
2.66991414e-06
2.74087213e-06
2.81300039e-06
2.88622632e-06
2.96046472e-06
3.03562074e-06
3.11159152e-06
3.18823824e-06
3.26540547e-06
3.34289751e-06
3.42050045e-06
3.49798319e-06
3.57510939e-06
3.65165086e-06
3.72739177e-06
3.80213395e-06
3.87570427e-06
3.94795515e-06
4.01876011e-06
4.08801828e-06
4.15565971e-06
4.22164454e-06
4.28597443e-06
4.34866907e-06
4.40979994e-06
4.46948911e-06
4.52792162e-06
4.58533375e-06
4.64205427e-06
4.69854576e-06
4.75548076e-06
4.81380669e-06
4.87479382e-06
4.94008557e-06
5.01184121e-06
5.09279861e-06
5.18630521e-06
5.29616073e-06
5.42607378e-06
5.57837826e-06
5.75164726e-06
5.93695375e-06
6.11300217e-06
6.2410575e-06
6.26577974e-06
6.12685536e-06
5.78345219e-06
5.23778003e-06
4.54322947e-06
3.78320657e-06
3.04130161e-06
2.37587916e-06
1.81488757e-06
1.36292465e-06
1.01121446e-06
7.45644525e-07
5.50527739e-07
4.0942614e-07
3.06290343e-07
2.26369649e-07
1.65412927e-07
1.20327996e-07
8.73825664e-08
6.3286458e-08
4.57174275e-08
3.29902299e-08
2.38291972e-08
1.7249647e-08
1.25142441e-08
9.09834161e-09
6.62867753e-09
4.83917532e-09
3.53972028e-09
2.59414266e-09
1.90467717e-09
1.40096753e-09
1.03226776e-09
7.61891291e-10
5.6326364e-10
4.17105749e-10
3.09373736e-10
2.29834714e-10
1.71016478e-10
1.27452467e-10
9.5136446e-11
7.11274232e-11
5.32628539e-11
3.99500588e-11
3.00142343e-11
2.25874994e-11
1.70277606e-11
1.28592776e-11
9.72905551e-12
7.37480619e-12
5.6013697e-12
4.26335471e-12
3.25238944e-12
2.48702953e-12
1.90645615e-12
1.46545348e-12
1.12988361e-12
8.74086369e-13
6.78745448e-13
5.29298338e-13
4.14747897e-13
3.26776606e-13
2.59087142e-13
2.06905206e-13
1.66600995e-13
1.35408355e-13
1.11221333e-13
9.24377544e-14
7.78343093e-14
6.64642142e-14
5.76071154e-14
5.07159678e-14
4.53765029e-14
4.12579829e-14
3.81073587e-14
3.57486214e-14
3.4069423e-14
3.29703467e-14
3.22774898e-14
3.18853491e-14
3.17181509e-14
3.17437563e-14
3.19043969e-14
3.21882789e-14
3.25766627e-14
3.30866096e-14
3.37047746e-14
3.43609946e-14
3.50775316e-14
3.58242055e-14
3.65976739e-14
3.73650362e-14
3.81057666e-14
3.88188905e-14
3.95012648e-14
4.01351194e-14
4.06531317e-14
4.11421069e-14
4.16887716e-14
4.22699307e-14
4.2883356e-14
4.35242408e-14
4.41837061e-14
4.48351765e-14
4.5451897e-14
4.6010525e-14
4.64989153e-14
4.6931869e-14
4.73470689e-14
4.77944533e-14
4.83264245e-14
4.89887497e-14
4.98115148e-14
5.08056503e-14
5.19691672e-14
5.33071424e-14
5.48530906e-14
5.62937151e-14
5.7772255e-14
5.92542703e-14
6.06932764e-14
6.20539195e-14
6.33120671e-14
6.44516517e-14
6.54628301e-14
6.63416101e-14
6.70903746e-14
6.77188813e-14
6.8245425e-14
6.86977878e-14
6.911333e-14
6.95372648e-14
7.0018231e-14
7.06019771e-14
7.13195348e-14
7.21064184e-14
7.29817711e-14
7.39010156e-14
7.48115303e-14
7.56632342e-14
7.64153107e-14
7.70397339e-14
7.75219286e-14
7.78595362e-14
7.80605334e-14
7.81418402e-14
7.81295247e-14
7.80618049e-14
7.79957642e-14
3.90055135e-08
6.11707024e-08
8.25352542e-08
1.05438971e-07
1.26891328e-07
1.46209873e-07
1.66227014e-07
1.90781798e-07
2.21619686e-07
2.58900188e-07
3.01695215e-07
3.46879587e-07
3.91537446e-07
4.34394272e-07
4.75737836e-07
5.16891218e-07
5.59571832e-07
6.05228899e-07
6.5435526e-07
7.05889693e-07
7.58015849e-07
8.09034806e-07
8.57999185e-07
9.04833657e-07
9.50262603e-07
9.95315022e-07
1.04110672e-06
1.08802929e-06
1.13587686e-06
1.18373956e-06
1.230442e-06
1.27493102e-06
1.31657694e-06
1.35527612e-06
1.39137325e-06
1.42549917e-06
1.45833495e-06
1.49044891e-06
1.52217926e-06
1.55369121e-06
1.58506671e-06
1.61640989e-06
1.64790757e-06
1.67977339e-06
1.71221612e-06
1.74520305e-06
1.77858774e-06
1.81213555e-06
1.8455957e-06
1.87877217e-06
1.91157513e-06
1.94404688e-06
1.97634323e-06
2.00870985e-06
2.04141944e-06
2.07473432e-06
2.10885508e-06
2.14391593e-06
2.17999556e-06
2.21713522e-06
2.25536136e-06
2.29460885e-06
2.33475157e-06
2.37560595e-06
2.41706557e-06
2.45907747e-06
2.50167576e-06
2.5449852e-06
2.58919619e-06
2.6345171e-06
2.68115541e-06
2.72927351e-06
2.77897558e-06
2.83029118e-06
2.88319294e-06
2.93763221e-06
2.99349547e-06
3.05074035e-06
3.10930806e-06
3.16915675e-06
3.23025401e-06
3.29254873e-06
3.35595841e-06
3.4203707e-06
3.48562219e-06
3.55153307e-06
3.6178755e-06
3.68441363e-06
3.75091746e-06
3.81716838e-06
3.88297278e-06
3.94816295e-06
4.01259768e-06
4.07616458e-06
4.13877426e-06
4.20035331e-06
4.26084984e-06
4.3202467e-06
4.37854163e-06
4.43577801e-06
4.4920407e-06
4.5474601e-06
4.60223592e-06
4.65663667e-06
4.71097633e-06
4.76565117e-06
4.82124352e-06
4.87858648e-06
4.93878163e-06
5.00321438e-06
5.07353537e-06
5.1518076e-06
5.24039592e-06
5.34183232e-06
5.45836711e-06
5.59105651e-06
5.73806904e-06
5.89215123e-06
6.03752824e-06
6.14712847e-06
6.18044946e-06
6.08980886e-06
5.83428991e-06
5.40006412e-06
4.80927825e-06
4.11981315e-06
3.40241764e-06
2.72365249e-06
2.12558928e-06
1.62584085e-06
1.22466614e-06
9.13014635e-07
6.78669903e-07
5.07811927e-07
3.81399396e-07
2.83284415e-07
2.0852824e-07
1.5287775e-07
1.11616804e-07
8.12702142e-08
5.90162779e-08
4.27777803e-08
3.10000385e-08
2.2485553e-08
1.63354666e-08
1.1887923e-08
8.66668599e-09
6.32965231e-09
4.63108754e-09
3.39432453e-09
2.49217517e-09
1.83292362e-09
1.35031716e-09
9.96410593e-10
7.36437467e-10
5.4514969e-10
4.04184019e-10
3.00134795e-10
2.23214753e-10
1.6626337e-10
1.24033079e-10
9.26719393e-11
6.93479687e-11
5.19758376e-11
3.90176941e-11
2.9337756e-11
2.2095975e-11
1.66701512e-11
1.25987917e-11
9.53912387e-12
7.23620908e-12
5.50018035e-12
4.1894683e-12
3.19851497e-12
2.44763977e-12
1.87778792e-12
1.44464191e-12
1.11484003e-12
8.6328178e-13
6.71057781e-13
5.23903017e-13
4.11039842e-13
3.24311785e-13
2.57536879e-13
2.06024395e-13
1.66209835e-13
1.35378405e-13
1.11458678e-13
9.28683327e-14
7.84004688e-14
6.71288578e-14
5.83474598e-14
5.15135466e-14
4.62113247e-14
4.21189086e-14
3.89905872e-14
3.66592133e-14
3.50089313e-14
3.39249928e-14
3.32473832e-14
3.28606999e-14
3.27015889e-14
3.27310948e-14
3.29010774e-14
3.31987654e-14
3.35910194e-14
3.4112724e-14
3.47335958e-14
3.54002527e-14
3.61307037e-14
3.68855485e-14
3.76706218e-14
3.84441024e-14
3.91987802e-14
3.99209722e-14
4.0607027e-14
4.12459283e-14
4.1781618e-14
4.22777315e-14
4.27993517e-14
4.33592581e-14
4.39513596e-14
4.45689787e-14
4.52065682e-14
4.58345492e-14
4.64274527e-14
4.69640789e-14
4.74341453e-14
4.78532043e-14
4.82581096e-14
4.86972484e-14
4.92207699e-14
4.98719324e-14
5.06786927e-14
5.16509438e-14
5.27866448e-14
5.40923203e-14
5.5643635e-14
5.70131878e-14
5.8451159e-14
5.98968826e-14
6.12998619e-14
6.26257451e-14
6.3851814e-14
6.49627869e-14
6.5949058e-14
6.68065546e-14
6.75374082e-14
6.81510099e-14
6.86651722e-14
6.9107052e-14
6.95132104e-14
6.99278705e-14
7.03984461e-14
7.09685689e-14
7.16613023e-14
7.24362104e-14
7.32922405e-14
7.41888274e-14
7.50756316e-14
7.59040458e-14
7.66342551e-14
7.72388459e-14
7.77035381e-14
7.80260391e-14
7.82142437e-14
7.82849127e-14
7.82639765e-14
7.81896803e-14
7.81197962e-14
9.09386485e-07
7.2710509e-07
6.73580864e-07
6.91744725e-07
6.43289314e-07
5.95034365e-07
6.07745613e-07
6.8821067e-07
7.97901411e-07
9.12843217e-07
1.01957816e-06
1.09019564e-06
1.12805528e-06
1.15066506e-06
1.17546695e-06
1.2133814e-06
1.26875738e-06
1.34002909e-06
1.41886052e-06
1.4910751e-06
1.54870533e-06
1.59139254e-06
1.62393767e-06
1.6530358e-06
1.6848324e-06
1.72317981e-06
1.76891703e-06
1.81932576e-06
1.86934714e-06
1.91420652e-06
1.95109461e-06
1.97953362e-06
2.00097325e-06
2.01794536e-06
2.03318895e-06
2.04890685e-06
2.06626745e-06
2.08541928e-06
2.10588596e-06
2.12712348e-06
2.14887433e-06
2.17128316e-06
2.19480895e-06
2.2199127e-06
2.24652165e-06
2.27403824e-06
2.30172501e-06
2.32892188e-06
2.35520626e-06
2.38045825e-06
2.40485044e-06
2.42878193e-06
2.45275942e-06
2.47729679e-06
2.5027933e-06
2.52949694e-06
2.55746929e-06
2.58666223e-06
2.61699538e-06
2.64840707e-06
2.68083906e-06
2.71400811e-06
2.7475576e-06
2.78117144e-06
2.81474742e-06
2.84834554e-06
2.88217293e-06
2.91653217e-06
2.95177835e-06
2.9882297e-06
3.02615519e-06
3.06570937e-06
3.1069458e-06
3.1498212e-06
3.1942435e-06
3.24012837e-06
3.28737903e-06
3.33597343e-06
3.38590129e-06
3.43717621e-06
3.48979993e-06
3.54373726e-06
3.59890007e-06
3.65514935e-06
3.7122888e-06
3.770106e-06
3.82835145e-06
3.88678796e-06
3.94520372e-06
4.00341661e-06
4.06128302e-06
4.11869131e-06
4.17555896e-06
4.2318258e-06
4.28745011e-06
4.34240236e-06
4.39666597e-06
4.45026684e-06
4.50322577e-06
4.55563648e-06
4.60762844e-06
4.65938912e-06
4.71118511e-06
4.76335016e-06
4.81623571e-06
4.8702757e-06
4.9261318e-06
4.98474136e-06
5.04726219e-06
5.11504235e-06
5.18952016e-06
5.27242578e-06
5.36542704e-06
5.4698983e-06
5.58624685e-06
5.7128185e-06
5.84410913e-06
5.96856916e-06
6.06665688e-06
6.11029742e-06
6.06209541e-06
5.88478609e-06
5.55362007e-06
5.07206648e-06
4.46907979e-06
3.79993644e-06
3.12302998e-06
2.4949087e-06
1.9473623e-06
1.49205425e-06
1.1271658e-06
8.4407226e-07
6.32382928e-07
4.77559613e-07
3.57145409e-07
2.64724575e-07
1.95313299e-07
1.43535522e-07
1.05069784e-07
7.66832705e-08
5.58242575e-08
4.05859666e-08
2.95063165e-08
2.14666858e-08
1.56366888e-08
1.14062139e-08
8.3330461e-09
6.09757101e-09
4.46901403e-09
3.28073024e-09
2.41229201e-09
1.77657222e-09
1.31045034e-09
9.68130258e-10
7.16323838e-10
5.30811939e-10
3.93939093e-10
2.92798667e-10
2.17950756e-10
1.62478806e-10
1.21307048e-10
9.07048425e-11
6.7926075e-11
5.0946349e-11
3.82711523e-11
2.87955966e-11
2.17017024e-11
1.63830651e-11
1.23895192e-11
9.38643149e-12
7.12472002e-12
5.41874115e-12
4.12997693e-12
3.15514012e-12
2.41592602e-12
1.8546986e-12
1.42788465e-12
1.10273434e-12
8.54596046e-13
6.64887967e-13
5.19584408e-13
4.0808354e-13
3.22358424e-13
2.56321602e-13
2.053509e-13
1.6593296e-13
1.35392139e-13
1.11685798e-13
9.32510763e-14
7.88948789e-14
6.77034149e-14
5.89806551e-14
5.2190116e-14
4.6919318e-14
4.28499746e-14
3.97406439e-14
3.74284861e-14
3.58002316e-14
3.47291079e-14
3.406296e-14
3.36823933e-14
3.35266641e-14
3.35599725e-14
3.37365813e-14
3.40439471e-14
3.44419412e-14
3.49713665e-14
3.55953437e-14
3.62674174e-14
3.70074858e-14
3.77706655e-14
3.85639279e-14
3.93431119e-14
4.01056275e-14
4.08346575e-14
4.15245615e-14
4.21655782e-14
4.27072603e-14
4.32058045e-14
4.37157694e-14
4.42603816e-14
4.48347038e-14
4.54333248e-14
4.60520677e-14
4.66607937e-14
4.72339237e-14
4.77520547e-14
4.82067946e-14
4.86141104e-14
4.90100644e-14
4.94416543e-14
4.995732e-14
5.0598296e-14
5.13909932e-14
5.23445707e-14
5.34568838e-14
5.47342255e-14
5.62977689e-14
5.75989167e-14
5.90067738e-14
6.04234675e-14
6.17970124e-14
6.3094436e-14
6.42942819e-14
6.53818894e-14
6.63478171e-14
6.71879117e-14
6.79040932e-14
6.85054515e-14
6.90094047e-14
6.94426006e-14
6.98409507e-14
7.02478798e-14
7.07098402e-14
7.12690255e-14
7.19454811e-14
7.2707079e-14
7.35465196e-14
7.44244402e-14
7.52918846e-14
7.61013313e-14
7.68137447e-14
7.74021978e-14
7.78526478e-14
7.81628524e-14
7.83406394e-14
7.84026415e-14
7.83746785e-14
7.82950097e-14
7.82219529e-14
1.12245877e-29
8.39487012e-30
5.70161726e-30
3.48127859e-30
2.13586245e-30
1.33210802e-30
8.04595668e-31
4.74312287e-31
2.82810061e-31
1.7183378e-31
1.046982e-31
6.50151659e-32
4.070094e-32
2.67145084e-32
1.71737216e-32
1.19546645e-32
8.92888203e-33
6.69416567e-33
5.12997216e-33
3.97783744e-33
3.23328199e-33
2.62646585e-33
2.15498539e-33
1.82545683e-33
1.56591071e-33
1.59118822e-33
1.42068652e-32
9.17203369e-31
6.35255866e-29
4.41809634e-27
3.08501658e-25
2.16010452e-23
1.51680026e-21
1.07060849e-19
7.60472956e-18
5.44856167e-16
3.96577436e-14
2.96417581e-12
2.35385218e-10
2.03382716e-08
4.10210395e-30
4.84382119e-30
3.84260195e-30
2.8852068e-30
2.1279809e-30
1.45990601e-30
9.6118525e-31
6.39622198e-31
4.24083444e-31
2.77891287e-31
1.82624763e-31
1.20610308e-31
8.29872978e-32
5.54939467e-32
3.83418349e-32
2.69561054e-32
2.00356056e-32
1.46166505e-32
1.10334879e-32
8.5644398e-33
6.68404536e-33
5.38985161e-33
4.15505198e-33
3.57325504e-33
2.86851337e-33
2.48580237e-33
4.17796584e-33
1.53099234e-31
1.05342926e-29
7.32948075e-28
5.11093974e-26
3.56860142e-24
2.49573436e-22
1.74803713e-20
1.22407036e-18
8.55573957e-17
5.96009565e-15
4.12166412e-13
2.80598082e-11
1.80578057e-09
5.48918754e-31
9.34306477e-31
1.02792445e-30
9.68460855e-31
8.53418804e-31
7.27731469e-31
5.98876056e-31
5.14868875e-31
4.19156715e-31
3.32140589e-31
2.54095188e-31
1.92059474e-31
1.45174637e-31
1.09163437e-31
8.40439209e-32
6.36552488e-32
4.81283401e-32
3.68850214e-32
2.79640709e-32
2.17419785e-32
1.69011013e-32
1.3615817e-32
1.0720369e-32
8.36131977e-33
6.63749331e-33
5.42930388e-33
4.86984196e-33
3.10627011e-32
1.92713967e-30
1.33337946e-28
9.22109746e-27
6.35643254e-25
4.36322072e-23
2.9712215e-21
1.99640036e-19
1.31520822e-17
8.4099947e-16
5.14569509e-14
2.91313262e-12
1.43828198e-10
1.15057829e-31
2.64095206e-31
3.75960352e-31
4.34801706e-31
4.50498941e-31
4.36320015e-31
4.03689019e-31
3.64132424e-31
3.2234458e-31
2.81293661e-31
2.42386015e-31
2.05793317e-31
1.70802586e-31
1.39549171e-31
1.12573705e-31
8.96265843e-32
7.13588459e-32
5.73492857e-32
4.56073347e-32
3.5849763e-32
2.82096781e-32
2.22788378e-32
1.74123105e-32
1.36732544e-32
1.08314308e-32
8.70781024e-33
7.00804703e-33
1.07497351e-32