/*--------------------------------*- C++ -*----------------------------------*\
  =========                 |
  \\      /  F ield         | OpenFOAM: The Open Source CFD Toolbox
   \\    /   O peration     | Website:  https://openfoam.org
    \\  /    A nd           | Version:  6
     \\/     M anipulation  |
\*---------------------------------------------------------------------------*/
FoamFile
{
    version     2.0;
    format      ascii;
    class       volScalarField;
    location    "25000";
    object      CH3O;
}
// * * * * * * * * * * * * * * * * * * * * * * * * * * * * * * * * * * * * * //

dimensions      [0 0 0 0 0 0 0];

internalField   nonuniform List<scalar> 
44870
(
1.88505716e-58
4.58436338e-58
8.04760454e-58
1.2236455e-57
1.71255313e-57
2.26879978e-57
2.8912071e-57
3.57808271e-57
4.32924323e-57
5.14370136e-57
6.02194386e-57
6.96341506e-57
7.96894184e-57
9.03817189e-57
1.0171975e-56
1.13699906e-56
1.26329124e-56
1.39602059e-56
1.53521896e-56
1.68085223e-56
1.83985423e-56
3.26089562e-56
2.34311649e-54
4.3174121e-52
8.16074761e-50
1.56737021e-47
3.05614816e-45
6.04676559e-43
1.21263682e-40
2.4633652e-38
5.06007151e-36
1.04990972e-33
2.19372317e-31
4.60501677e-29
9.65112648e-27
2.00657262e-24
4.07689562e-22
7.93234182e-20
1.39272801e-17
2.06603871e-15
1.88694973e-58
4.59381385e-58
8.0839873e-58
1.2336408e-57
1.73481331e-57
2.3112025e-57
2.96404357e-57
3.69328663e-57
4.50082172e-57
5.38666195e-57
6.35296307e-57
7.3994207e-57
8.52819944e-57
9.73856203e-57
1.10323877e-56
1.24085595e-56
1.38685551e-56
1.54107205e-56
1.70360621e-56
1.87430251e-56
2.06543547e-56
4.70159189e-56
4.98562675e-54
1.01587041e-51
2.10915165e-49
4.44395525e-47
9.47982189e-45
2.050765e-42
4.48593769e-40
9.94950905e-38
2.22877187e-35
5.06227486e-33
1.15962034e-30
2.69328593e-28
6.29120118e-26
1.48616286e-23
3.49914362e-21
8.23091183e-19
1.81286408e-16
3.79543248e-14
1.90644612e-58
4.70240823e-58
8.41541525e-58
1.30911869e-57
1.87934811e-57
2.55690937e-57
3.34929762e-57
4.2596946e-57
5.29527809e-57
6.45746926e-57
7.75290871e-57
9.1801787e-57
1.07463489e-56
1.2445553e-56
1.42867496e-56
1.62601418e-56
1.83746107e-56
2.0617394e-56
2.29980526e-56
2.55023947e-56
2.87208509e-56
1.63723731e-55
3.02858075e-53
6.94909796e-51
1.60333999e-48
3.7343363e-46
8.72810812e-44
2.06172168e-41
4.8824015e-39
1.17072924e-36
2.81120924e-34
6.85004992e-32
1.66907319e-29
4.13905404e-27
1.02566251e-24
2.59460297e-22
6.55409408e-20
1.70460261e-17
4.26149584e-15
1.10147159e-12
2.15891709e-58
5.72982239e-58
1.09218551e-57
1.79336029e-57
2.69194736e-57
3.80140627e-57
5.13234002e-57
6.69131285e-57
8.48177256e-57
1.05016835e-56
1.2746432e-56
1.5205748e-56
1.78677274e-56
2.07159161e-56
2.37329497e-56
2.68996037e-56
3.01944728e-56
3.35989189e-56
3.70875614e-56
4.06918162e-56
5.5477856e-56
2.80048465e-54
6.73747404e-52
1.6482712e-49
4.02825156e-47
9.85763756e-45
2.411368e-42
5.91481248e-40
1.45075363e-37
3.57474419e-35
8.80851737e-33
2.18426518e-30
5.41573459e-28
1.35359323e-25
3.38250556e-23
8.51629585e-21
2.13781168e-18
5.38378744e-16
1.31132402e-13
3.11127432e-11
5.80198182e-58
1.48607396e-57
2.63491803e-57
3.97298071e-57
5.46552397e-57
7.08586818e-57
8.81699634e-57
1.06448282e-56
1.25612214e-56
1.45586232e-56
1.66335191e-56
1.87818214e-56
2.10024568e-56
2.32930576e-56
2.56535837e-56
2.80822443e-56
3.05790663e-56
3.31420997e-56
3.57754705e-56
3.96347502e-56
3.32703243e-55
7.20548738e-53
1.76873207e-50
4.32294822e-48
1.05209785e-45
2.55151972e-43
6.16944811e-41
1.48778533e-38
3.58052939e-36
8.60144506e-34
2.06347263e-31
4.94463282e-29
1.18388541e-26
2.83263454e-24
6.77470321e-22
1.6197247e-19
3.87196327e-17
9.25461532e-15
2.21187758e-12
5.3148162e-10
7.3126497e-14
3.41522662e-13
9.55985383e-13
2.19374565e-12
4.50213548e-12
8.53270217e-12
1.51419626e-11
2.54234193e-11
4.05904331e-11
6.21316638e-11
9.14860586e-11
1.30498559e-10
1.80766626e-10
2.44488559e-10
3.23718102e-10
4.2076904e-10
5.38574839e-10
6.79579113e-10
8.48277505e-10
1.04776966e-09
1.28382905e-09
1.56173195e-09
1.88860027e-09
2.27300438e-09
2.72558543e-09
3.25933914e-09
3.88552253e-09
4.62968342e-09
5.50275513e-09
6.54336898e-09
7.77553012e-09
9.23877757e-09
1.09810289e-08
1.30409204e-08
1.54912959e-08
1.83789638e-08
2.17973792e-08
2.58100328e-08
3.05252785e-08
3.60341561e-08
4.24634067e-08
4.99416613e-08
5.86129476e-08
6.86104592e-08
8.01151037e-08
9.32417724e-08
1.08113322e-07
1.24841211e-07
1.43524969e-07
1.64253336e-07
1.87094356e-07
2.12095018e-07
2.39260889e-07
2.68555651e-07
2.99875644e-07
3.33050878e-07
3.67825089e-07
4.03862521e-07
4.4074494e-07
4.77984377e-07
5.15034967e-07
5.51303939e-07
5.86175062e-07
6.19014403e-07
6.49203811e-07
6.76131065e-07
6.99216344e-07
7.1788241e-07
7.31568868e-07
7.39700429e-07
7.41716486e-07
7.37088436e-07
7.25396387e-07
7.06423845e-07
6.80256321e-07
6.47407478e-07
6.08733161e-07
5.6563803e-07
5.19728526e-07
4.7269181e-07
4.26105079e-07
3.81288939e-07
3.39232234e-07
3.00585285e-07
2.65697049e-07
2.34675738e-07
2.07452634e-07
1.83840551e-07
1.63579304e-07
1.46372114e-07
1.31909362e-07
1.19886438e-07
1.10011853e-07
1.02016345e-07
9.56576871e-08
9.07226933e-08
8.70275225e-08
8.44175668e-08
8.27666423e-08
8.19764894e-08
8.1973157e-08
8.27054406e-08
8.41420196e-08
8.62729963e-08
8.91067979e-08
9.26748501e-08
9.7031592e-08
1.02252011e-07
1.08439685e-07
1.15719668e-07
1.24241246e-07
1.34169991e-07
1.45678559e-07
1.58932876e-07
1.74058889e-07
1.91092778e-07
2.09906565e-07
2.30101696e-07
2.50869528e-07
2.70834909e-07
2.87942168e-07
2.99518903e-07
3.02720769e-07
2.95460647e-07
2.77488732e-07
2.50842359e-07
2.19121064e-07
1.86115803e-07
1.547438e-07
1.26712428e-07
1.02705304e-07
8.27323338e-08
6.64407211e-08
5.33278483e-08
4.28637591e-08
3.45553487e-08
2.79686905e-08
2.27342408e-08
1.85334701e-08
1.50995044e-08
1.22315362e-08
9.75466773e-09
7.50056407e-09
5.45735411e-09
3.82662265e-09
2.67204291e-09
1.88240385e-09
1.33705598e-09
9.5617581e-10
6.89239871e-10
5.01897031e-10
3.67738994e-10
2.70411813e-10
1.98928999e-10
1.46131095e-10
1.07444555e-10
7.92332617e-11
5.86805921e-11
4.36870266e-11
3.27037504e-11
2.4586068e-11
1.85635028e-11
1.4074944e-11
1.07129074e-11
8.18080685e-12
6.26094611e-12
4.79754575e-12
3.6787501e-12
2.82148754e-12
2.16364393e-12
1.65860644e-12
1.2710244e-12
9.74055261e-13
7.47791778e-13
5.75823131e-13
4.45010406e-13
3.45508919e-13
2.69798201e-13
2.12157396e-13
1.68252002e-13
1.34799606e-13
1.09313734e-13
8.99101419e-14
7.51608647e-14
6.3982978e-14
5.55536795e-14
4.92477815e-14
4.4592392e-14
4.12312946e-14
3.88973382e-14
3.7389455e-14
3.65965992e-14
3.63771062e-14
3.66259916e-14
3.72630799e-14
3.82368489e-14
3.9515723e-14
4.10681607e-14
4.28692091e-14
4.48979364e-14
4.71613573e-14
4.96541665e-14
5.24001357e-14
5.53577484e-14
5.85802718e-14
6.20528923e-14
6.5825179e-14
6.98697388e-14
7.40588131e-14
7.84564548e-14
8.2981392e-14
8.76220392e-14
9.22784505e-14
9.69295426e-14
1.01569813e-13
1.06171429e-13
1.10656586e-13
1.14733352e-13
1.18913158e-13
1.23398526e-13
1.27880939e-13
1.32422935e-13
1.37012118e-13
1.41623561e-13
1.46175407e-13
1.50583892e-13
1.54770675e-13
1.58690699e-13
1.62378384e-13
1.6593545e-13
1.69502086e-13
1.73230192e-13
1.7725335e-13
1.81657551e-13
1.86472107e-13
1.9169001e-13
1.97320181e-13
2.03326822e-13
2.09140268e-13
2.1483181e-13
2.20359067e-13
2.25611732e-13
2.30486549e-13
2.34907126e-13
2.38821553e-13
2.4219777e-13
2.45021902e-13
2.47299649e-13
2.49058808e-13
2.50352171e-13
2.51259783e-13
2.51889449e-13
2.52374091e-13
2.52864813e-13
2.53521852e-13
2.54517778e-13
2.5555744e-13
2.56878367e-13
2.58404037e-13
2.60019894e-13
2.61598343e-13
2.63015599e-13
2.64167111e-13
2.6497761e-13
2.65407092e-13
2.65454303e-13
2.65160259e-13
2.64616595e-13
2.63980687e-13
2.63493068e-13
1.64163977e-12
6.91327538e-12
1.73792371e-11
3.70817291e-11
7.21930107e-11
1.30909408e-10
2.22656651e-10
3.58732787e-10
5.50099742e-10
8.09958518e-10
1.14919437e-09
1.58286021e-09
2.12189434e-09
2.78376601e-09
3.58293954e-09
4.53548279e-09
5.66252424e-09
6.9793542e-09
8.5177e-09
1.0292823e-08
1.23396687e-08
1.4685319e-08
1.73600889e-08
2.04106605e-08
2.38564603e-08
2.77620667e-08
3.21456492e-08
3.70829417e-08
4.25939029e-08
4.87541174e-08
5.55930807e-08
6.31632334e-08
7.14915712e-08
8.06043133e-08
9.05286299e-08
1.0127463e-07
1.12875022e-07
1.25334258e-07
1.38693423e-07
1.52957148e-07
1.6816369e-07
1.84309357e-07
2.01405837e-07
2.19404629e-07
2.38356018e-07
2.58198118e-07
2.78909507e-07
3.00473699e-07
3.22875003e-07
3.46093534e-07
3.70098357e-07
3.94845763e-07
4.202752e-07
4.46311539e-07
4.72862456e-07
4.99816462e-07
5.27032256e-07
5.54329109e-07
5.81473743e-07
6.08173923e-07
6.34076424e-07
6.58774526e-07
6.818193e-07
7.02733615e-07
7.21025707e-07
7.36193691e-07
7.47735529e-07
7.55147017e-07
7.57932195e-07
7.55609509e-07
7.47743925e-07
7.33982997e-07
7.14129979e-07
6.88210406e-07
6.56549081e-07
6.19819283e-07
5.78966731e-07
5.35310209e-07
4.90243397e-07
4.45140931e-07
4.0122838e-07
3.59488577e-07
3.20629217e-07
2.85092579e-07
2.53091999e-07
2.24659612e-07
1.99698063e-07
1.78020654e-07
1.59388215e-07
1.4353563e-07
1.3018808e-07
1.19075744e-07
1.09940806e-07
1.02544775e-07
9.66722652e-08
9.21330456e-08
8.87626394e-08
8.64226425e-08
8.50005251e-08
8.44095325e-08
8.45846386e-08
8.54819737e-08
8.7076377e-08
8.93629336e-08
9.23538189e-08
9.60837907e-08
1.00609106e-07
1.06005923e-07
1.12377639e-07
1.19847211e-07
1.28558298e-07
1.38668154e-07
1.50337992e-07
1.63715232e-07
1.78899883e-07
1.95893691e-07
2.1452496e-07
2.34343561e-07
2.54487204e-07
2.73538708e-07
2.89437497e-07
2.99579367e-07
3.01289512e-07
2.92732074e-07
2.7389475e-07
2.46917038e-07
2.15327068e-07
1.82746122e-07
1.51920409e-07
1.24438728e-07
1.00921943e-07
8.13570994e-08
6.53909157e-08
5.25303241e-08
4.22575973e-08
3.40920792e-08
2.7609877e-08
2.2449626e-08
1.82970192e-08
1.48976888e-08
1.20544878e-08
9.5906369e-09
7.34248353e-09
5.33101186e-09
3.74499584e-09
2.62317623e-09
1.85252405e-09
1.31814065e-09
9.43902753e-10
6.81348649e-10
4.96592751e-10
3.63944789e-10
2.67671813e-10
1.96865851e-10
1.44620893e-10
1.06371057e-10
7.84763196e-11
5.81470965e-11
4.33101215e-11
3.24403443e-11
2.44044636e-11
1.84378207e-11
1.39874007e-11
1.06514502e-11
8.13747138e-12
6.23041726e-12
4.77583579e-12
3.66315729e-12
2.81019366e-12
2.15541004e-12
1.65258056e-12
1.26661166e-12
9.70830283e-13
7.45429208e-13
5.74119173e-13
4.43797625e-13
3.44671232e-13
2.69242746e-13
2.11813055e-13
1.68065417e-13
1.34731034e-13
1.09333608e-13
8.99964724e-14
7.52974741e-14
6.41581534e-14
5.57588773e-14
4.94766087e-14
4.48402662e-14
4.149532e-14
3.9175879e-14
3.76803439e-14
3.69001625e-14
3.66913266e-14
3.69507557e-14
3.75971381e-14
3.85799436e-14
3.9869471e-14
4.14352987e-14
4.32501982e-14
4.52899394e-14
4.75667363e-14
5.00749563e-14
5.28403485e-14
5.58153227e-14
5.90490652e-14
6.25376265e-14
6.63301414e-14
7.03962635e-14
7.45982538e-14
7.90052236e-14
8.35473705e-14
8.82080076e-14
9.28846534e-14
9.75448791e-14
1.0219165e-13
1.06806042e-13
1.11308117e-13
1.15375989e-13
1.1956424e-13
1.24063939e-13
1.28539824e-13
1.33077462e-13
1.37659173e-13
1.42260806e-13
1.46804155e-13
1.51205565e-13
1.55386257e-13
1.59301642e-13
1.62987095e-13
1.66544335e-13
1.7011214e-13
1.73840155e-13
1.77860244e-13
1.82257525e-13
1.87060901e-13
1.92263359e-13
1.97875153e-13
2.03879491e-13
2.09657962e-13
2.15322555e-13
2.20826703e-13
2.26056839e-13
2.30909621e-13
2.3530942e-13
2.39204882e-13
2.42564159e-13
2.45373369e-13
2.47638082e-13
2.49385904e-13
2.50669389e-13
2.51568294e-13
2.52190084e-13
2.52667265e-13
2.53150377e-13
2.53798604e-13
2.54790768e-13
2.55811089e-13
2.5712291e-13
2.58636843e-13
2.60239777e-13
2.61805025e-13
2.6320936e-13
2.64348611e-13
2.65147767e-13
2.65566961e-13
2.6560498e-13
2.65302821e-13
2.6475213e-13
2.64110458e-13
2.636192e-13
6.83769612e-11
2.71704779e-10
6.42406653e-10
1.30485144e-09
2.40467054e-09
4.10277769e-09
6.55078006e-09
9.87882884e-09
1.41633237e-08
1.94648779e-08
2.57893409e-08
3.31560906e-08
4.15346103e-08
5.09161112e-08
6.12514635e-08
7.24972315e-08
8.45997423e-08
9.7483346e-08
1.11095827e-07
1.25354878e-07
1.40198905e-07
1.55551636e-07
1.7133283e-07
1.87476948e-07
2.03900605e-07
2.20579491e-07
2.37448292e-07
2.54526018e-07
2.71716243e-07
2.89015991e-07
3.06363225e-07
3.23695925e-07
3.40948397e-07
3.58085335e-07
3.75091745e-07
3.92000069e-07
4.08859826e-07
4.25734919e-07
4.4267467e-07
4.5969281e-07
4.76780356e-07
4.93900743e-07
5.11025892e-07
5.28085868e-07
5.45183025e-07
5.62264782e-07
5.79332614e-07
5.96365926e-07
6.13309832e-07
6.30076988e-07
6.46558438e-07
6.62648855e-07
6.78260694e-07
6.93332692e-07
7.07823696e-07
7.21691344e-07
7.34867148e-07
7.47232964e-07
7.58613669e-07
7.68778131e-07
7.77456848e-07
7.84356476e-07
7.89176672e-07
7.9160965e-07
7.91345401e-07
7.88071854e-07
7.81472605e-07
7.71257442e-07
7.57175279e-07
7.39045599e-07
7.16782244e-07
6.90423028e-07
6.60164277e-07
6.26374508e-07
5.89607773e-07
5.50584255e-07
5.10135313e-07
4.69214812e-07
4.28718335e-07
3.89454476e-07
3.52090894e-07
3.17127877e-07
2.84899177e-07
2.55584552e-07
2.29238117e-07
2.05815466e-07
1.85204479e-07
1.67244187e-07
1.51746165e-07
1.3850861e-07
1.2732421e-07
1.17989484e-07
1.10309675e-07
1.04103117e-07
9.92043433e-08
9.54661183e-08
9.27605236e-08
9.09800197e-08
9.00384513e-08
8.98711779e-08
9.04304663e-08
9.16866869e-08
9.36267234e-08
9.62552119e-08
9.95913976e-08
1.03675918e-07
1.08568064e-07
1.1434582e-07
1.21110211e-07
1.28978055e-07
1.38079088e-07
1.48551464e-07
1.60527464e-07
1.74112055e-07
1.89346983e-07
2.06157807e-07
2.2427854e-07
2.43151547e-07
2.61808858e-07
2.78761817e-07
2.91968568e-07
2.99005819e-07
2.97585687e-07
2.86400521e-07
2.65896989e-07
2.38373105e-07
2.07170434e-07
1.75549438e-07
1.45909594e-07
1.19602913e-07
9.71277921e-08
7.84278055e-08
6.31507698e-08
5.08245236e-08
4.09571034e-08
3.30943783e-08
2.68331884e-08
2.18295853e-08
1.77767512e-08
1.44525599e-08
1.16647376e-08
9.21672466e-09
6.99935028e-09
5.06593079e-09
3.57478131e-09
2.52072564e-09
1.78924772e-09
1.27780885e-09
9.17608813e-10
6.64469666e-10
4.84927377e-10
3.55566693e-10
2.61676499e-10
1.92384328e-10
1.41381957e-10
1.0407195e-10
7.68540399e-11
5.70018333e-11
4.24993411e-11
3.18702754e-11
2.40109722e-11
1.81652384e-11
1.37973317e-11
1.05178592e-11
8.04308126e-12
6.16378692e-12
4.72842607e-12
3.62908549e-12
2.7855008e-12
2.13740229e-12
1.63940031e-12
1.25696068e-12
9.6377935e-13
7.4026974e-13
5.7040212e-13
4.41152753e-13
3.42848283e-13
2.68037067e-13
2.11068976e-13
1.67666208e-13
1.34589689e-13
1.09385518e-13
9.01938011e-14
7.56049491e-14
6.45499021e-14
5.62160043e-14
4.99854162e-14
4.53911477e-14
4.20818063e-14
3.97939014e-14
3.83282942e-14
3.75726299e-14
3.73874724e-14
3.7669659e-14
3.83368817e-14
3.93396697e-14
4.06522408e-14
4.22463654e-14
4.40915541e-14
4.61593847e-14
4.84653291e-14
5.10053039e-14
5.3809843e-14
5.68250191e-14
6.00906697e-14
6.36128193e-14
6.74443387e-14
7.15522984e-14
7.57882123e-14
8.0224063e-14
8.48003854e-14
8.94979869e-14
9.42152631e-14
9.89032751e-14
1.03570287e-13
1.08207994e-13
1.12741887e-13
1.16917245e-13
1.21099888e-13
1.25531266e-13
1.29993475e-13
1.34519154e-13
1.39085707e-13
1.4366817e-13
1.48192659e-13
1.5257648e-13
1.56742407e-13
1.60647102e-13
1.64326752e-13
1.67882836e-13
1.71451517e-13
1.75178363e-13
1.79191421e-13
1.83573518e-13
1.88352484e-13
1.93521278e-13
1.99093607e-13
2.05094097e-13
2.10794075e-13
2.16400632e-13
2.21854754e-13
2.27035717e-13
2.3184026e-13
2.36194527e-13
2.40048392e-13
2.43370471e-13
2.46146857e-13
2.48382837e-13
2.50105593e-13
2.51367159e-13
2.52246672e-13
2.52850862e-13
2.53311358e-13
2.53777495e-13
2.5440588e-13
2.55346788e-13
2.5636675e-13
2.57660132e-13
2.59148271e-13
2.60722938e-13
2.62259344e-13
2.63635444e-13
2.64747884e-13
2.65522212e-13
2.65918868e-13
2.65936724e-13
2.65616733e-13
2.65050558e-13
2.64396108e-13
2.63896503e-13
3.16146449e-09
1.12571425e-08
2.52149647e-08
4.62288984e-08
7.58382081e-08
1.15025636e-07
1.62699603e-07
2.16337343e-07
2.72844557e-07
3.29576803e-07
3.84584731e-07
4.36739551e-07
4.85200818e-07
5.29466081e-07
5.6911661e-07
6.04043334e-07
6.34249353e-07
6.6002111e-07
6.81816306e-07
7.00082082e-07
7.15203509e-07
7.27455516e-07
7.37149402e-07
7.44621878e-07
7.50376522e-07
7.54936507e-07
7.58872828e-07
7.6261721e-07
7.66223445e-07
7.69796325e-07
7.73265504e-07
7.76559834e-07
7.79719999e-07
7.82905999e-07
7.86370204e-07
7.90367563e-07
7.95036047e-07
8.00352159e-07
8.06106156e-07
8.12015997e-07
8.17801228e-07
8.23303443e-07
8.28469346e-07
8.33319736e-07
8.38075464e-07
8.4270871e-07
8.47153922e-07
8.51217267e-07
8.54629056e-07
8.57125606e-07
8.58526691e-07
8.58772406e-07
8.57912276e-07
8.56058894e-07
8.53314304e-07
8.49709244e-07
8.45170631e-07
8.39534587e-07
8.32594939e-07
8.24149837e-07
8.14041997e-07
8.02167302e-07
7.88468979e-07
7.72890459e-07
7.55391823e-07
7.35919849e-07
7.14430882e-07
6.90930842e-07
6.65472349e-07
6.3816168e-07
6.09151842e-07
5.78642441e-07
5.46883728e-07
5.14182318e-07
4.80894458e-07
4.47431461e-07
4.14237523e-07
3.81790809e-07
3.50510377e-07
3.20758726e-07
2.92815947e-07
2.66877862e-07
2.43059821e-07
2.21403889e-07
2.01895893e-07
1.84478814e-07
1.69067953e-07
1.55557701e-07
1.43829698e-07
1.33759708e-07
1.25220272e-07
1.18084623e-07
1.12228988e-07
1.07535884e-07
1.03896746e-07
1.01213794e-07
9.94016464e-08
9.83892228e-08
9.81222251e-08
9.85619851e-08
9.96817118e-08
1.01469104e-07
1.03925582e-07
1.07066769e-07
1.10919658e-07
1.15529717e-07
1.20959052e-07
1.27285615e-07
1.34602453e-07
1.43012215e-07
1.52620513e-07
1.63530018e-07
1.75823631e-07
1.8953751e-07
2.04621929e-07
2.20887746e-07
2.37933831e-07
2.55059137e-07
2.71172739e-07
2.84736894e-07
2.9381533e-07
2.96330276e-07
2.90596619e-07
2.76023537e-07
2.53586745e-07
2.25671797e-07
1.95281582e-07
1.65170658e-07
1.37284338e-07
1.12674253e-07
9.16876683e-08
7.42185327e-08
5.99211149e-08
4.83546332e-08
3.90632996e-08
3.16311927e-08
2.56832598e-08
2.09008191e-08
1.69983952e-08
1.37897327e-08
1.10561316e-08
8.64555538e-09
6.49828927e-09
4.69734998e-09
3.34125426e-09
2.37748711e-09
1.69922627e-09
1.21978673e-09
8.79466204e-10
6.3921875e-10
4.6712353e-10
3.42754692e-10
2.52601862e-10
1.85848024e-10
1.36692291e-10
1.00744367e-10
7.45022678e-11
5.53363469e-11
4.13158129e-11
3.10304358e-11
2.34291711e-11
1.77614918e-11
1.3515254e-11
1.0319174e-11
7.90217066e-12
6.06396e-12
4.6573382e-12
3.57793958e-12
2.74839306e-12
2.11032673e-12
1.61957894e-12
1.24244914e-12
9.53183603e-13
7.32532447e-13
5.6480401e-13
4.37197005e-13
3.40132199e-13
2.662491e-13
2.09974707e-13
1.67090084e-13
1.34400884e-13
1.09487045e-13
9.05140148e-14
7.60908782e-14
6.51624103e-14
5.69266138e-14
5.07739198e-14
4.62434358e-14
4.29879298e-14
4.07470391e-14
3.93269123e-14
3.86085391e-14
3.84588193e-14
3.87744784e-14
3.94741376e-14
4.0507714e-14
4.18549581e-14
4.34902101e-14
4.53806657e-14
4.74983251e-14
4.98473802e-14
5.24341851e-14
5.52920304e-14
5.83703788e-14
6.16956046e-14
6.52654383e-14
6.91521554e-14
7.33131716e-14
7.76069654e-14
8.20981395e-14
8.67213193e-14
9.14691325e-14
9.62382781e-14
1.00978992e-13
1.05685096e-13
1.10353016e-13
1.14923273e-13
1.19210933e-13
1.23428508e-13
1.27780559e-13
1.32216379e-13
1.36720022e-13
1.41262484e-13
1.45819456e-13
1.50314978e-13
1.54669121e-13
1.58809431e-13
1.62695462e-13
1.66364248e-13
1.69915762e-13
1.73482985e-13
1.7720626e-13
1.81207995e-13
1.85566866e-13
1.90308749e-13
1.95426541e-13
2.0093863e-13
2.06939589e-13
2.12512723e-13
2.18034187e-13
2.23413965e-13
2.28520831e-13
2.3325243e-13
2.37537817e-13
2.41328741e-13
2.44594492e-13
2.47321103e-13
2.49513427e-13
2.51198012e-13
2.52426112e-13
2.53275935e-13
2.53853122e-13
2.54288011e-13
2.54728171e-13
2.55325513e-13
2.56195472e-13
2.57212829e-13
2.58475049e-13
2.59923682e-13
2.6145555e-13
2.62948382e-13
2.64281843e-13
2.65353785e-13
2.66090585e-13
2.66453146e-13
2.66440468e-13
2.66093441e-13
2.65503738e-13
2.64829799e-13
2.64317251e-13
1.32617531e-07
3.55885834e-07
6.12694343e-07
8.93552005e-07
1.21918189e-06
1.56362258e-06
1.85955151e-06
2.06426895e-06
2.17138496e-06
2.19923835e-06
2.17537012e-06
2.12257857e-06
2.05263922e-06
1.97192329e-06
1.88527993e-06
1.79702657e-06
1.7113808e-06
1.63206136e-06
1.56113793e-06
1.49792644e-06
1.4403134e-06
1.38662515e-06
1.33634884e-06
1.29015539e-06
1.24918754e-06
1.21437563e-06
1.18588244e-06
1.16213857e-06
1.14129886e-06
1.12153735e-06
1.10188856e-06
1.08232449e-06
1.06352011e-06
1.04641974e-06
1.03177971e-06
1.0197676e-06
1.00976505e-06
1.00064332e-06
9.91257227e-07
9.80923643e-07
9.69528156e-07
9.57445149e-07
9.45225407e-07
9.33358652e-07
9.22154674e-07
9.11349511e-07
9.00376507e-07
8.88546131e-07
8.7535114e-07
8.60642713e-07
8.44623412e-07
8.27720037e-07
8.10407194e-07
7.93054608e-07
7.75816049e-07
7.5862357e-07
7.41261717e-07
7.23497815e-07
7.05185037e-07
6.86297308e-07
6.66903095e-07
6.47122485e-07
6.27055311e-07
6.06740616e-07
5.86155585e-07
5.65254856e-07
5.44010224e-07
5.22412069e-07
5.00475282e-07
4.78223834e-07
4.55684189e-07
4.32892235e-07
4.09906182e-07
3.86829271e-07
3.63801569e-07
3.4101766e-07
3.18702399e-07
2.97102412e-07
2.76426908e-07
2.56849757e-07
2.38498216e-07
2.21451719e-07
2.05749091e-07
1.91396021e-07
1.78374552e-07
1.66653183e-07
1.56192993e-07
1.46949085e-07
1.3887204e-07
1.31909074e-07
1.26003521e-07
1.21095968e-07
1.17125031e-07
1.14030036e-07
1.11753217e-07
1.1024145e-07
1.09448219e-07
1.09336821e-07
1.09882891e-07
1.1107119e-07
1.12895584e-07
1.15359983e-07
1.18478922e-07
1.22276794e-07
1.26784839e-07
1.32049379e-07
1.38132526e-07
1.45105884e-07
1.53045543e-07
1.62026376e-07
1.72112371e-07
1.8335143e-07
1.95752568e-07
2.0925414e-07
2.23683212e-07
2.3870639e-07
2.53766197e-07
2.6801819e-07
2.80287776e-07
2.89085475e-07
2.92743521e-07
2.89732063e-07
2.79135187e-07
2.6112113e-07
2.37084672e-07
2.09315904e-07
1.80319527e-07
1.52269681e-07
1.26623223e-07
1.041217e-07
8.49626897e-08
6.89972804e-08
5.58949914e-08
4.5255755e-08
3.6666451e-08
2.97597289e-08
2.41912763e-08
1.96906434e-08
1.59816254e-08
1.28907698e-08
1.0230261e-08
7.89417656e-09
5.88070416e-09
4.26615413e-09
3.06793534e-09
2.20558007e-09
1.58889307e-09
1.14769706e-09
8.31582434e-10
6.05648239e-10
4.43109226e-10
3.25491026e-10
2.40833016e-10
1.77562206e-10
1.3084652e-10
9.65912432e-11
7.15574114e-11
5.3240606e-11
3.98182927e-11
2.99604601e-11
2.26794625e-11
1.72401026e-11
1.31499507e-11
1.00610774e-11
7.71845625e-12
5.93302058e-12
4.56395539e-12
3.51063821e-12
2.69949373e-12
2.07461658e-12
1.59342849e-12
1.22330857e-12
9.39219681e-13
7.22366006e-13
5.5745228e-13
4.32026894e-13
3.36597552e-13
2.63938334e-13
2.08578369e-13
1.66376582e-13
1.34197673e-13
1.09666379e-13
9.0981731e-14
7.67772573e-14
6.60156731e-14
5.79091729e-14
5.18595444e-14
4.74138223e-14
4.42297472e-14
4.2050896e-14
4.06897266e-14
4.0022724e-14
3.99195631e-14
4.02781289e-14
4.1022359e-14
4.20990082e-14
4.34922354e-14
4.51790392e-14
4.71278375e-14
4.93214847e-14
5.17298036e-14
5.43772692e-14
5.72963899e-14
6.04586302e-14
6.38793068e-14
6.7512324e-14
7.14686305e-14
7.56832751e-14
8.00588744e-14
8.46396019e-14
8.93226166e-14
9.41300664e-14
9.89519297e-14
1.03773089e-13
1.08543695e-13
1.13248996e-13
1.17856063e-13
1.22216996e-13
1.26487734e-13
1.30809593e-13
1.35213781e-13
1.39683753e-13
1.44191553e-13
1.48718344e-13
1.53175289e-13
1.57486443e-13
1.61588233e-13
1.65446086e-13
1.69097434e-13
1.72639094e-13
1.76200333e-13
1.79915775e-13
1.83900719e-13
1.88227569e-13
1.9291923e-13
1.97968462e-13
2.03397387e-13
2.09413753e-13
2.14799064e-13
2.20213441e-13
2.25496431e-13
2.30504921e-13
2.35139309e-13
2.39332913e-13
2.43039973e-13
2.46230608e-13
2.48890748e-13
2.51024657e-13
2.52658051e-13
2.5384116e-13
2.54650982e-13
2.55191731e-13
2.55592074e-13
2.55997364e-13
2.56554578e-13
2.5735971e-13
2.58346814e-13
2.59563793e-13
2.60959102e-13
2.62433872e-13
2.63868717e-13
2.65145452e-13
2.66163497e-13
2.6685031e-13
2.671674e-13
2.67113953e-13
2.66730778e-13
2.66109565e-13
2.65409459e-13
2.64879418e-13
5.19251667e-07
2.18847774e-06
3.1000808e-06
4.05501801e-06
5.20609838e-06
5.77261129e-06
5.40612174e-06
4.59012882e-06
3.75717514e-06
3.11583046e-06
2.6984218e-06
2.4363309e-06
2.23107914e-06
2.04685346e-06
1.88116093e-06
1.73843733e-06
1.62250781e-06
1.53455522e-06
1.46744724e-06
1.40601179e-06
1.34219199e-06
1.277255e-06
1.21632553e-06
1.16442298e-06
1.1240614e-06
1.09475673e-06
1.07304306e-06
1.05294614e-06
1.03034063e-06
1.00435112e-06
9.76651128e-07
9.49773785e-07
9.25916486e-07
9.0633789e-07
8.91091622e-07
8.78903926e-07
8.67565825e-07
8.55133369e-07
8.40808782e-07
8.24981267e-07
8.08654906e-07
7.92884637e-07
7.78392963e-07
7.65424586e-07
7.53744423e-07
7.4251933e-07
7.30753055e-07
7.1773247e-07
7.03291682e-07
6.87749099e-07
6.7166678e-07
6.55616845e-07
6.40013497e-07
6.25025971e-07
6.10560124e-07
5.96341223e-07
5.8206406e-07
5.67525186e-07
5.52676732e-07
5.37594726e-07
5.22403911e-07
5.07235577e-07
4.92147761e-07
4.77119584e-07
4.62078177e-07
4.46947844e-07
4.31687488e-07
4.16273411e-07
4.00696742e-07
3.84944367e-07
3.68996201e-07
3.52840683e-07
3.36489981e-07
3.20006202e-07
3.03490949e-07
2.87097326e-07
2.71004698e-07
2.55403849e-07
2.40452256e-07
2.26274735e-07
2.12958545e-07
2.00553237e-07
1.89079688e-07
1.78539012e-07
1.689204e-07
1.60211084e-07
1.52397536e-07
1.45465805e-07
1.39400404e-07
1.34182967e-07
1.29790439e-07
1.26195097e-07
1.23364959e-07
1.21266109e-07
1.19864957e-07
1.19130092e-07
1.1903386e-07
1.19557687e-07
1.20690791e-07
1.22430357e-07
1.24780269e-07
1.27752179e-07
1.31365755e-07
1.35647024e-07
1.40623617e-07
1.4633967e-07
1.52852542e-07
1.60222317e-07
1.68504142e-07
1.77741851e-07
1.87956631e-07
1.99146447e-07
2.11255289e-07
2.24140285e-07
2.37534013e-07
2.51004907e-07
2.63905144e-07
2.75336352e-07
2.84147339e-07
2.88997668e-07
2.88533211e-07
2.81693003e-07
2.68083402e-07
2.4827244e-07
2.23759001e-07
1.96624071e-07
1.68968604e-07
1.42600165e-07
1.18673324e-07
9.77470901e-08
7.99368767e-08
6.50755977e-08
5.28495991e-08
4.28906129e-08
3.4814264e-08
2.82924411e-08
2.30083722e-08
1.87165615e-08
1.515642e-08
1.21588719e-08
9.5662785e-09
7.31866951e-09
5.43910907e-09
3.96761828e-09
2.87499612e-09
2.08067462e-09
1.50705891e-09
1.0934395e-09
7.95170611e-10
5.80532837e-10
4.25465986e-10
3.12967836e-10
2.31850774e-10
1.71232055e-10
1.26411328e-10
9.34636741e-11
6.93284463e-11
5.16432538e-11
3.86682032e-11
2.91324882e-11
2.20906788e-11
1.68294269e-11
1.28610541e-11
9.85613392e-12
7.5719811e-12
5.82802549e-12
4.48877614e-12
3.45632748e-12
2.65996193e-12
2.04571292e-12
1.57225456e-12
1.2078157e-12
9.27929162e-13
7.1418118e-13
5.51553343e-13
4.27892096e-13
3.33787323e-13
2.62118733e-13
2.07498537e-13
1.65849096e-13
1.34083011e-13
1.09861111e-13
9.14095358e-14
7.73819097e-14
6.67557486e-14
5.87544489e-14
5.27884518e-14
4.84112523e-14
4.52852997e-14
4.31579031e-14
4.18455472e-14
4.12200052e-14
4.11540414e-14
4.15485096e-14
4.23285689e-14
4.34424638e-14
4.48739847e-14
4.66043987e-14
4.86001676e-14
5.08511773e-14
5.33134022e-14
5.60111057e-14
5.89850828e-14
6.22104685e-14
6.5701427e-14
6.93940513e-14
7.34100016e-14
7.76734684e-14
8.21039078e-14
8.67488176e-14
9.14882915e-14
9.63481324e-14
1.01216343e-13
1.06089339e-13
1.10908133e-13
1.15650383e-13
1.20288159e-13
1.24689096e-13
1.28991437e-13
1.33308619e-13
1.37695315e-13
1.42139897e-13
1.46619639e-13
1.51118015e-13
1.55543684e-13
1.59820494e-13
1.63890388e-13
1.67724214e-13
1.71360109e-13
1.74892525e-13
1.78447025e-13
1.82153587e-13
1.86121794e-13
1.90419662e-13
1.95068045e-13
2.00059365e-13
2.05414941e-13
2.11462599e-13
2.16668313e-13
2.22003494e-13
2.27208924e-13
2.32136741e-13
2.36691241e-13
2.40809557e-13
2.444479e-13
2.47576989e-13
2.5018262e-13
2.52268568e-13
2.53859862e-13
2.55005902e-13
2.55782695e-13
2.56293298e-13
2.56665028e-13
2.57041523e-13
2.57566506e-13
2.58327991e-13
2.5928193e-13
2.60459463e-13
2.61810313e-13
2.63238001e-13
2.64625207e-13
2.6585541e-13
2.66829276e-13
2.67475127e-13
2.67754955e-13
2.67668089e-13
2.67255275e-13
2.66608214e-13
2.65886624e-13
2.65342223e-13
3.5279477e-20
2.93564142e-20
2.07322043e-20
1.42678752e-20
9.75599891e-21
6.66942697e-21
4.58825229e-21
3.19111129e-21
2.26371625e-21
1.63970767e-21
1.21082165e-21
9.13324833e-22
7.05607074e-22
5.57159512e-22
4.48386062e-22
3.67800509e-22
3.07663327e-22
2.61622068e-22
2.25854516e-22
1.97798999e-22
1.75570206e-22
1.57683851e-22
1.43069815e-22
1.31142689e-22
1.21259703e-22
1.1309387e-22
1.06159479e-22
1.00301316e-22
9.53173972e-23
9.10396248e-23
8.74264319e-23
8.6878549e-23
2.93055582e-22
1.68363087e-20
1.19387643e-18
8.55290463e-17
6.22465073e-15
4.65221203e-13
3.69443538e-11
3.19260547e-09
1.02313475e-20
1.34293788e-20
1.28779767e-20
1.11122415e-20
9.14129952e-21
7.32675681e-21
5.77187523e-21
4.49341073e-21
3.47525935e-21
2.6834897e-21
2.07576396e-21
1.61342937e-21
1.26562198e-21
1.00281933e-21
8.0363881e-22
6.51454695e-22
5.34952948e-22
4.44955759e-22
3.74486402e-22
3.19081832e-22
2.75079091e-22
2.39733464e-22
2.11150733e-22
1.88090133e-22
1.69035952e-22
1.53432764e-22
1.40447513e-22
1.29556131e-22
1.20371839e-22
1.12643173e-22
1.06045707e-22
1.00846176e-22
1.28787885e-22
2.79542843e-21
1.92199557e-19
1.34308222e-17
9.35540493e-16
6.46938816e-14
4.4045508e-12
2.83516101e-10
1.4442145e-21
4.85046684e-21
6.24229515e-21
6.49328163e-21
6.21858712e-21
5.68965581e-21
5.05671149e-21
4.40253251e-21
3.77362938e-21
3.1971258e-21
2.68502672e-21
2.24057335e-21
1.8627981e-21
1.5460654e-21
1.28312894e-21
1.06586884e-21
8.87901496e-22
7.42665149e-22
6.24065801e-22
5.27263106e-22
4.48230616e-22
3.83920267e-22
3.31116807e-22
2.87842241e-22
2.52274106e-22
2.22949082e-22
1.98730892e-22
1.78503225e-22
1.61617526e-22
1.47465755e-22
1.35587767e-22
1.25628044e-22
1.22937667e-22
5.49660444e-22
3.14034791e-20
2.0648312e-18
1.32024595e-16
8.07792716e-15
4.57362241e-13
2.2588453e-11
2.69019056e-22
9.71841188e-22
1.68232438e-21
2.90635561e-21
3.81575087e-21
4.11887666e-21
4.07882324e-21
3.84944271e-21
3.52360915e-21
3.15713854e-21
2.78497801e-21
2.42730981e-21
2.09637756e-21
1.79815067e-21
1.53469246e-21
1.30507796e-21
1.10745546e-21
9.39159536e-22
7.96690447e-22
6.76800901e-22
5.76323362e-22
4.9253931e-22
4.22714689e-22
3.64689022e-22
3.16524023e-22
2.76531856e-22
2.4326782e-22
2.15576884e-22