/*--------------------------------*- C++ -*----------------------------------*\
  =========                 |
  \\      /  F ield         | OpenFOAM: The Open Source CFD Toolbox
   \\    /   O peration     | Website:  https://openfoam.org
    \\  /    A nd           | Version:  6
     \\/     M anipulation  |
\*---------------------------------------------------------------------------*/
FoamFile
{
    version     2.0;
    format      ascii;
    class       volScalarField;
    location    "25000";
    object      CH3OH;
}
// * * * * * * * * * * * * * * * * * * * * * * * * * * * * * * * * * * * * * //

dimensions      [0 0 0 0 0 0 0];

internalField   nonuniform List<scalar> 
44870
(
1.19231721e-64
3.67924773e-64
7.73023721e-64
1.36101559e-63
2.1595075e-63
3.19544296e-63
4.49888742e-63
6.099342e-63
8.03111583e-63
1.03276991e-62
1.30288589e-62
1.6172917e-62
1.98055627e-62
2.39702545e-62
2.87184679e-62
3.40986632e-62
4.01768287e-62
4.84266873e-62
2.83017829e-61
3.66995969e-59
5.97430592e-57
9.90170295e-55
1.66707579e-52
2.85008606e-50
4.94482332e-48
8.70295214e-46
1.55266348e-43
2.80677843e-41
5.13575426e-39
9.50711563e-37
1.77754707e-34
3.35372314e-32
6.36615873e-30
1.21325003e-27
2.30705152e-25
4.35060965e-23
8.01488475e-21
1.41410169e-18
2.2505673e-16
3.03384651e-14
1.19483735e-64
3.69469491e-64
7.79373186e-64
1.38000195e-63
2.20582266e-63
3.29226437e-63
4.68104444e-63
6.41410969e-63
8.5417696e-63
1.11131085e-62
1.41879391e-62
1.78223598e-62
2.20858656e-62
2.70412421e-62
3.2766861e-62
3.93319966e-62
4.68353736e-62
5.73998103e-62
4.25714716e-61
6.36302821e-59
1.13771988e-56
2.06876658e-54
3.81475808e-52
7.13360874e-50
1.35044154e-47
2.58981885e-45
5.02107257e-43
9.85593495e-41
1.95370378e-38
3.9205057e-36
7.9366677e-34
1.62661022e-31
3.35864194e-29
7.02140458e-27
1.47489592e-24
3.12935031e-22
6.61215754e-20
1.39477756e-17
2.75166083e-15
5.16764192e-13
1.22053589e-64
3.85146584e-64
8.33145954e-64
1.51774802e-63
2.50120158e-63
3.85188671e-63
5.65418988e-63
7.99407914e-63
1.09793538e-62
1.47137475e-62
1.93299279e-62
2.49445219e-62
3.17186901e-62
3.97701876e-62
4.92951071e-62
6.04064337e-62
7.33591795e-62
9.47761076e-62
1.43693464e-60
2.70307855e-58
5.5164006e-56
1.13434348e-53
2.34424252e-51
4.87843488e-49
1.01938201e-46
2.14611275e-44
4.53382401e-42
9.6591654e-40
2.0635314e-37
4.45274107e-35
9.62629693e-33
2.10605719e-30
4.61008101e-28
1.02411054e-25
2.27445251e-23
5.14152613e-21
1.16060041e-18
2.68826943e-16
5.97809151e-14
1.36641649e-11
1.51546941e-64
5.26806845e-64
1.23648394e-63
2.41605976e-63
4.22224577e-63
6.83757262e-63
1.04697532e-62
1.53463029e-62
2.17146671e-62
2.98273999e-62
3.99460737e-62
5.23175823e-62
6.71825123e-62
8.4748457e-62
1.05198639e-61
1.28680376e-61
1.55661964e-61
2.7084164e-61
1.94213289e-59
4.28220289e-57
9.51378575e-55
2.10791891e-52
4.65851074e-50
1.02817248e-47
2.26567296e-45
4.99313041e-43
1.09968273e-40
2.42511987e-38
5.34775544e-36
1.18271727e-33
2.61630045e-31
5.81338729e-29
1.29199347e-26
2.88873392e-24
6.45986275e-22
1.45260827e-19
3.25813136e-17
7.31931696e-15
1.59152923e-12
3.36742521e-10
5.71820687e-64
1.87424652e-63
3.997591e-63
7.00414447e-63
1.094663e-62
1.58631904e-62
2.1797339e-62
2.87861682e-62
3.68792739e-62
4.61222925e-62
5.65765731e-62
6.82992885e-62
8.13647836e-62
9.58410868e-62
1.11813574e-61
1.2939039e-61
1.56230968e-61
1.94040298e-60
4.05121642e-58
9.17613327e-56
2.06306006e-53
4.60656607e-51
1.02243038e-48
2.25748416e-46
4.96187203e-44
1.08639106e-41
2.37070356e-39
5.15766949e-37
1.11939591e-34
2.42410927e-32
5.24042145e-30
1.13110523e-27
2.43850243e-25
5.25131175e-23
1.12999313e-20
2.42972025e-18
5.22181126e-16
1.12162477e-13
2.40815749e-11
5.19577489e-09
9.72927169e-13
4.07921846e-12
1.06009002e-11
2.26278634e-11
4.31821773e-11
7.6332682e-11
1.27275755e-10
2.02713654e-10
3.1063559e-10
4.61504011e-10
6.67234188e-10
9.43714165e-10
1.30841365e-09
1.78462302e-09
2.39869876e-09
3.18246432e-09
4.17535347e-09
5.42024005e-09
6.97568395e-09
8.90066139e-09
1.12751772e-08
1.41855456e-08
1.77375032e-08
2.20566343e-08
2.7289052e-08
3.36136116e-08
4.12108524e-08
5.03608677e-08
6.12803438e-08
7.43620225e-08
8.99388768e-08
1.08460654e-07
1.30440855e-07
1.56375459e-07
1.86977876e-07
2.22838972e-07
2.64857435e-07
3.13767744e-07
3.70625178e-07
4.36385522e-07
5.12285987e-07
5.99586838e-07
6.99693888e-07
8.13940059e-07
9.44071959e-07
1.0913561e-06
1.25717324e-06
1.44288281e-06
1.64983926e-06
1.87943361e-06
2.13304771e-06
2.4121043e-06
2.7179338e-06
3.05183155e-06
3.41485618e-06
3.80788474e-06
4.23141907e-06
4.68566458e-06
5.17046692e-06
5.68541922e-06
6.22992979e-06
6.8032593e-06
7.40470421e-06
8.03350916e-06
8.68926012e-06
9.37156549e-06
1.00805822e-05
1.08164408e-05
1.15796563e-05
1.23703042e-05
1.31882588e-05
1.40326629e-05
1.49017532e-05
1.57934501e-05
1.67041305e-05
1.76313332e-05
1.85693311e-05
1.95150074e-05
2.04644161e-05
2.14141148e-05
2.23610229e-05
2.33026081e-05
2.42370142e-05
2.51627925e-05
2.60789153e-05
2.69845124e-05
2.78791052e-05
2.87620889e-05
2.96330888e-05
3.04918851e-05
3.13382946e-05
3.21723242e-05
3.29940182e-05
3.38035518e-05
3.46012026e-05
3.53873202e-05
3.61622634e-05
3.692636e-05
3.76798258e-05
3.84227644e-05
3.91548864e-05
3.98756451e-05
4.05839861e-05
4.1278404e-05
4.19568893e-05
4.26168899e-05
4.32550108e-05
4.38667259e-05
4.44459083e-05
4.49843748e-05
4.54711229e-05
4.58913737e-05
4.62253096e-05
4.64462686e-05
4.65190479e-05
4.63983789e-05
4.60282577e-05
4.5343325e-05
4.42737632e-05
4.27550642e-05
4.07429076e-05
3.82316986e-05
3.52722616e-05
3.19798316e-05
2.85204402e-05
2.50749485e-05
2.17973828e-05
1.87905284e-05
1.61039246e-05
1.37463155e-05
1.17013028e-05
9.9396809e-06
8.4274527e-06
7.13051927e-06
6.0167944e-06
5.0574843e-06
4.22669937e-06
3.50180232e-06
2.86311642e-06
2.29429779e-06
1.79301776e-06
1.35642347e-06
9.86620942e-07
6.94183279e-07
4.83356089e-07
3.3851399e-07
2.39117852e-07
1.70138107e-07
1.22005541e-07
8.79242209e-08
6.36271531e-08
4.61960711e-08
3.36389075e-08
2.45567736e-08
1.79667162e-08
1.31783101e-08
9.69218166e-09
7.14796108e-09
5.28628317e-09
3.92029624e-09
2.91480307e-09
2.1728619e-09
1.6240276e-09
1.21700714e-09
9.1435929e-10
6.88659065e-10
5.19873212e-10
3.93348151e-10
2.98289568e-10
2.26726254e-10
1.7276299e-10
1.32038696e-10
1.01340564e-10
7.81808123e-11
6.06880324e-11
4.74553627e-11
3.74463884e-11
2.98776969e-11
2.4158341e-11
1.98437289e-11
1.65991684e-11
1.4172459e-11
1.23734693e-11
1.10589213e-11
1.01209157e-11
9.47828911e-12
9.07038892e-12
8.85273264e-12
8.79370899e-12
8.87287194e-12
9.0683284e-12
9.37003604e-12
9.76683557e-12
1.02552673e-11
1.08335649e-11
1.15047816e-11
1.22750139e-11
1.31469107e-11
1.41233477e-11
1.52091035e-11
1.64184864e-11
1.77630074e-11
1.92625569e-11
2.09137075e-11
2.27526496e-11
2.47894867e-11
2.70662748e-11
2.95824453e-11
3.22977801e-11
3.52609593e-11
3.84517915e-11
4.1881343e-11
4.55049663e-11
4.93272746e-11
5.33581679e-11
5.76012226e-11
6.20172958e-11
6.64405485e-11
7.11888364e-11
7.63845196e-11
8.18781622e-11
8.77061943e-11
9.38570516e-11
1.00322471e-10
1.07044241e-10
1.13956945e-10
1.20991488e-10
1.28105228e-10
1.35320719e-10
1.4270987e-10
1.50372724e-10
1.58420713e-10
1.66953252e-10
1.76032628e-10
1.85674889e-10
1.95865256e-10
2.06606522e-10
2.17873114e-10
2.29107402e-10
2.4037729e-10
2.51630711e-10
2.62749176e-10
2.73620745e-10
2.84158598e-10
2.94299847e-10
3.04002218e-10
3.13242987e-10
3.2201991e-10
3.30353108e-10
3.3828697e-10
3.4589097e-10
3.53257824e-10
3.60496974e-10
3.67722263e-10
3.75040673e-10
3.82591052e-10
3.89944474e-10
3.97324767e-10
4.04589586e-10
4.11594113e-10
4.18216131e-10
4.24365701e-10
4.29990207e-10
4.35072268e-10
4.39622059e-10
4.43665888e-10
4.47230126e-10
4.50314844e-10
4.52839655e-10
4.54518153e-10
2.00790395e-11
7.24537357e-11
1.63584411e-10
3.14526873e-10
5.5382615e-10
9.15828264e-10
1.43947125e-09
2.17460922e-09
3.17762198e-09
4.52266886e-09
6.28971712e-09
8.58552148e-09
1.15209883e-08
1.5242744e-08
1.99077855e-08
2.56979174e-08
3.2829117e-08
4.15231052e-08
5.20686461e-08
6.47308721e-08
7.98532426e-08
9.77832016e-08
1.18898481e-07
1.43660271e-07
1.7245417e-07
2.05855711e-07
2.44287687e-07
2.88416622e-07
3.38694121e-07
3.958187e-07
4.60302955e-07
5.32767036e-07
6.13700685e-07
7.03607215e-07
8.0295757e-07
9.12144481e-07
1.03165508e-06
1.16181131e-06
1.3031558e-06
1.45598765e-06
1.62086559e-06
1.79804903e-06
1.98797107e-06
2.19064525e-06
2.4067724e-06
2.63633775e-06
2.87963556e-06
3.13706951e-06
3.40915319e-06
3.69651126e-06
3.99984617e-06
4.31995275e-06
4.65766927e-06
5.01390872e-06
5.38961427e-06
5.78578618e-06
6.20339853e-06
6.64339883e-06
7.10660999e-06
7.59372298e-06
8.10523319e-06
8.64147812e-06
9.20263451e-06
9.78880303e-06
1.04001026e-05
1.1036557e-05
1.16984697e-05
1.2386046e-05
1.30996123e-05
1.38391364e-05
1.4604343e-05
1.53943411e-05
1.62075423e-05
1.70419564e-05
1.78945096e-05
1.87628212e-05
1.96420244e-05
2.05293973e-05
2.14215645e-05
2.23156361e-05
2.32089352e-05
2.40993328e-05
2.49852061e-05
2.5865195e-05
2.67382327e-05
2.76033912e-05
2.84599794e-05
2.93072755e-05
3.01447013e-05
3.09718697e-05
3.17884172e-05
3.25941503e-05
3.33889923e-05
3.4172978e-05
3.49462396e-05
3.57089659e-05
3.6461345e-05
3.72035221e-05
3.79355261e-05
3.86572724e-05
3.93682603e-05
4.0067738e-05
4.07544582e-05
4.1426723e-05
4.20823524e-05
4.27186004e-05
4.33318057e-05
4.39171133e-05
4.44679741e-05
4.49757394e-05
4.5428919e-05
4.5812223e-05
4.61052435e-05
4.62808265e-05
4.63035087e-05
4.61281909e-05
4.5699774e-05
4.49548865e-05
4.38270732e-05
4.22566321e-05
4.02050698e-05
3.76726657e-05
3.4714628e-05
3.14472934e-05
2.80328235e-05
2.46443646e-05
2.14273194e-05
1.84782003e-05
1.58430667e-05
1.35294758e-05
1.15211412e-05
9.78959653e-06
8.30179429e-06
7.02459582e-06
5.92671056e-06
4.98010832e-06
4.15941911e-06
3.4425445e-06
2.81031141e-06
2.24858917e-06
1.75440383e-06
1.32496449e-06
9.62601972e-07
6.78199482e-07
4.73643998e-07
3.3263279e-07
2.35444404e-07
1.67777563e-07
1.2043607e-07
8.68792812e-08
6.29176074e-08
4.57094736e-08
3.33034285e-08
2.43231513e-08
1.78041106e-08
1.30652156e-08
9.61326028e-09
7.09263052e-09
5.24731314e-09
3.8928004e-09
2.89539016e-09
2.15911781e-09
1.61427005e-09
1.21006163e-09
9.09407554e-10
6.85128534e-10
5.17351861e-10
3.91545274e-10
2.97000243e-10
2.25805539e-10
1.72107998e-10
1.31575109e-10
1.01016666e-10
7.79600824e-11
6.05430119e-11
4.73652489e-11
3.73975355e-11
2.98596396e-11
2.41633217e-11
1.98660872e-11
1.66347954e-11
1.42183784e-11
1.2427537e-11
1.11196256e-11
1.01872242e-11
9.54951021e-12
9.14607981e-12
8.9326866e-12
8.87793368e-12
8.96139702e-12
9.16080319e-12
9.46679287e-12
9.86810502e-12
1.03614943e-11
1.09447172e-11
1.16212111e-11
1.23977507e-11
1.32773651e-11
1.4261968e-11
1.53552253e-11
1.65734998e-11
1.79283603e-11
1.94405309e-11
2.11038295e-11
2.2952835e-11
2.50025352e-11
2.72951907e-11
2.9828551e-11
3.25572273e-11
3.55326109e-11
3.87405836e-11
4.21899334e-11
4.58337628e-11
4.96700871e-11
5.37140196e-11
5.79749055e-11
6.2412396e-11
6.684114e-11
7.16059634e-11
7.68201568e-11
8.23214705e-11
8.8158591e-11
9.43152659e-11
1.00784002e-10
1.07510125e-10
1.14428509e-10
1.21469306e-10
1.28590033e-10
1.35814389e-10
1.432146e-10
1.50889279e-10
1.58947594e-10
1.67487285e-10
1.76569714e-10
1.86210306e-10
1.96394003e-10
2.07124463e-10
2.18395629e-10
2.29600383e-10
2.40847767e-10
2.520816e-10
2.63180616e-10
2.74032918e-10
2.84552453e-10
2.94676902e-10
3.04364258e-10
3.13591853e-10
3.22357363e-10
3.30680725e-10
3.38606044e-10
3.46202393e-10
3.53561958e-10
3.60793516e-10
3.68010088e-10
3.75317605e-10
3.82865646e-10
3.90190041e-10
3.97556357e-10
4.04804407e-10
4.11791385e-10
4.18396334e-10
4.24530018e-10
4.30140205e-10
4.35209678e-10
4.3974861e-10
4.43783193e-10
4.47339654e-10
4.50417954e-10
4.52937779e-10
4.54613838e-10
7.55470305e-10
2.38256828e-09
4.78579395e-09
8.38504476e-09
1.35266136e-08
2.05431574e-08
2.97979682e-08
4.17147802e-08
5.67258237e-08
7.53370435e-08
9.80334095e-08
1.253748e-07
1.57863401e-07
1.96070109e-07
2.40492661e-07
2.91653411e-07
3.50033978e-07
4.16050991e-07
4.90141145e-07
5.72636247e-07
6.63895363e-07
7.64189592e-07
8.73760024e-07
9.92813252e-07
1.12144822e-06
1.2598892e-06
1.4080525e-06
1.56616255e-06
1.73383692e-06
1.91107127e-06
2.09753937e-06
2.2928942e-06
2.4966719e-06
2.7084991e-06
2.92796058e-06
3.15482383e-06
3.38892002e-06
3.63019732e-06
3.87872131e-06
4.13442416e-06
4.3973827e-06
4.66743931e-06
4.94469228e-06
5.22883378e-06
5.52055367e-06
5.81971379e-06
6.12657636e-06
6.44147524e-06
6.76477283e-06
7.09685395e-06
7.43808874e-06
7.78894295e-06
8.14995672e-06
8.52180886e-06
8.90531639e-06
9.30143303e-06
9.71118744e-06
1.0135641e-05
1.05758093e-05
1.10326144e-05
1.15068604e-05
1.19992629e-05
1.25103883e-05
1.30408564e-05
1.35910495e-05
1.41613569e-05
1.47523104e-05
1.53642338e-05
1.59973945e-05
1.66518048e-05
1.73272166e-05
1.80229353e-05
1.87378214e-05
1.94703269e-05
2.02183678e-05
2.09800632e-05
2.17521652e-05
2.25328078e-05
2.3319748e-05
2.4111037e-05
2.49049021e-05
2.56998534e-05
2.64946053e-05
2.7287986e-05
2.8078882e-05
2.88662647e-05
2.96491179e-05
3.04265445e-05
3.11976662e-05
3.19617591e-05
3.27182395e-05
3.34666592e-05
3.42067018e-05
3.49381621e-05
3.56609138e-05
3.63748476e-05
3.70798269e-05
3.77756438e-05
3.84619616e-05
3.91383039e-05
3.98037593e-05
4.0457154e-05
4.10968444e-05
4.17207346e-05
4.2326305e-05
4.29103864e-05
4.34687362e-05
4.39957657e-05
4.4484011e-05
4.49238434e-05
4.53028251e-05
4.56045714e-05
4.58075634e-05
4.58837836e-05
4.579747e-05
4.55042567e-05
4.49514221e-05
4.40802963e-05
4.28319531e-05
4.11570445e-05
3.90291702e-05
3.64603036e-05
3.35137586e-05
3.03069831e-05
2.69927621e-05
2.37277469e-05
2.06396449e-05
1.78127339e-05
1.52863972e-05
1.30658461e-05
1.11351409e-05
9.46735416e-06
8.03140853e-06
6.79617773e-06
5.73200272e-06
4.81251054e-06
4.01337404e-06
3.31370487e-06
2.69536678e-06
2.14985509e-06
1.67164198e-06
1.25733834e-06
9.12130443e-07
6.44963982e-07
4.53356252e-07
3.20227924e-07
2.27635331e-07
1.62733976e-07
1.17072287e-07
8.46283008e-08
6.13853032e-08
4.46574882e-08
3.25783442e-08
2.38182451e-08
1.74531395e-08
1.28209444e-08
9.44262948e-09
6.97286066e-09
5.16286345e-09
3.83311836e-09
2.85322117e-09
2.12924414e-09
1.59304928e-09
1.19494843e-09
8.98625772e-10
6.77436598e-10
5.11857163e-10
3.87615441e-10
2.94189377e-10
2.23798286e-10
1.70680336e-10
1.30565444e-10
1.00311717e-10
7.7480447e-11
6.02287159e-11
4.71705444e-11
3.72931327e-11
2.982253e-11
2.41765593e-11
1.99173109e-11
1.67150246e-11
1.43211188e-11
1.25481311e-11
1.1254784e-11
1.03346729e-11
9.70772516e-12
9.31412084e-12
9.11013678e-12
9.06481609e-12
9.15771602e-12
9.36639903e-12
9.68117043e-12
1.00923946e-11
1.0596619e-11
1.11910298e-11
1.18793208e-11
1.26694895e-11
1.356549e-11
1.456816e-11
1.56797015e-11
1.69176206e-11
1.82941016e-11
1.98322973e-11
2.1523514e-11
2.33983532e-11
2.54759222e-11
2.78002653e-11
3.03683793e-11
3.31298216e-11
3.61372328e-11
3.93809313e-11
4.28687605e-11
4.65546045e-11
5.04274128e-11
5.45047943e-11
5.8801491e-11
6.32809433e-11
6.77985643e-11
7.25823814e-11
7.77831647e-11
8.33002843e-11
8.91541468e-11
9.53250871e-11
1.01804373e-10
1.08540357e-10
1.15468871e-10
1.22521818e-10
1.2965796e-10
1.36901524e-10
1.44324552e-10
1.52023361e-10
1.60103327e-10
1.68658425e-10
1.77747449e-10
1.873843e-10
1.97553415e-10
2.08261089e-10
2.19543191e-10
2.30681513e-10
2.41880511e-10
2.53072029e-10
2.64128656e-10
2.74938822e-10
2.85418236e-10
2.95505849e-10
3.05160235e-10
3.14358844e-10
3.23099172e-10
3.31400758e-10
3.39307087e-10
3.46886366e-10
3.54229634e-10
3.61444241e-10
3.68641446e-10
3.75924554e-10
3.83406421e-10
3.90726671e-10
3.98064718e-10
4.0527603e-10
4.12224642e-10
4.18792269e-10
4.24891196e-10
4.30470031e-10
4.35511903e-10
4.4002698e-10
4.44041231e-10
4.47580567e-10
4.50644711e-10
4.53153474e-10
4.54823299e-10
3.03548745e-08
7.58515477e-08
1.3241534e-07
1.99926272e-07
2.78700907e-07
3.69536973e-07
4.72764743e-07
5.88657122e-07
7.17229329e-07
8.58638118e-07
1.01294236e-06
1.18019976e-06
1.35987387e-06
1.55139183e-06
1.75361579e-06
1.96571141e-06
2.18651017e-06
2.41524708e-06
2.65143427e-06
2.8945124e-06
3.14403847e-06
3.39921863e-06
3.65951074e-06
3.92403514e-06
4.1925268e-06
4.46452562e-06
4.73994832e-06
5.0188948e-06
5.30052705e-06
5.5849374e-06
5.87170983e-06
6.16037829e-06
6.4506212e-06
6.74234851e-06
7.03568766e-06
7.33096098e-06
7.62848271e-06
7.92858226e-06
8.23136028e-06
8.53672794e-06
8.84459588e-06
9.15486151e-06
9.46770576e-06
9.78310223e-06
1.01020035e-05
1.04244238e-05
1.07506365e-05
1.10808135e-05
1.14150362e-05
1.17533229e-05
1.20957705e-05
1.2442668e-05
1.27945129e-05
1.31520595e-05
1.35162032e-05
1.38879268e-05
1.42681654e-05
1.46577563e-05
1.50574164e-05
1.54677299e-05
1.58892872e-05
1.63226105e-05
1.67682442e-05
1.72266843e-05
1.769842e-05
1.81839662e-05
1.86838914e-05
1.91987141e-05
1.97289174e-05
2.02748377e-05
2.08365948e-05
2.14139864e-05
2.20065086e-05
2.26132767e-05
2.32331907e-05
2.38650929e-05
2.45073013e-05
2.51588634e-05
2.58186431e-05
2.64855759e-05
2.71587864e-05
2.7837295e-05
2.85200491e-05
2.92059898e-05
2.98938983e-05
3.05825893e-05
3.12707764e-05
3.19572808e-05
3.26410175e-05
3.33210263e-05
3.39965236e-05
3.46668518e-05
3.53314609e-05
3.59898853e-05
3.66416878e-05
3.72863847e-05
3.79234218e-05
3.85521356e-05
3.91717034e-05
3.97810813e-05
4.03788356e-05
4.09632211e-05
4.15320421e-05
4.20826552e-05
4.26121164e-05
4.31166191e-05
4.35910326e-05
4.40286025e-05
4.44205618e-05
4.47559566e-05
4.50211249e-05
4.51983292e-05
4.52647816e-05
4.51917317e-05
4.49437436e-05
4.44784853e-05
4.37477614e-05
4.2700724e-05
4.1289987e-05
3.9481124e-05
3.72640423e-05
3.46652696e-05
3.17566321e-05
2.86543322e-05
2.54950223e-05
2.24118316e-05
1.95087651e-05
1.68555186e-05
1.44834215e-05
1.23948579e-05
1.05744854e-05
8.99756049e-06
7.63569662e-06
6.46059881e-06
5.44478464e-06
4.5643716e-06
3.79635751e-06
3.12182552e-06
2.52797801e-06
2.00680704e-06
1.55098832e-06
1.16077172e-06
8.41893703e-07
5.9930234e-07
4.25196211e-07
3.02699732e-07
2.1645796e-07
1.55453914e-07
1.12166238e-07
8.13316809e-08
5.91327639e-08
4.31082981e-08
3.15100168e-08
2.30773694e-08
1.69379066e-08
1.24617671e-08
9.19125128e-09
6.79603397e-09
5.03793506e-09
3.74459624e-09
2.79057712e-09
2.08481628e-09
1.56145808e-09
1.17242827e-09
8.82540978e-10
6.65949066e-10
5.03647656e-10
3.81741622e-10
2.89986849e-10
2.20797303e-10
1.68546687e-10
1.29058755e-10
9.92610144e-11
7.6767739e-11
5.9759785e-11
4.68843893e-11
3.71428717e-11
2.97732878e-11
2.42029124e-11
2.00007278e-11
1.68420401e-11
1.44820104e-11
1.2735943e-11
1.14645939e-11
1.05630576e-11
9.95240678e-12
9.57373853e-12
9.38410091e-12
9.35318559e-12
9.46026786e-12
9.68329255e-12
1.00113705e-11
1.04375849e-11
1.0958113e-11
1.15700953e-11
1.22766543e-11
1.30873837e-11
1.40075889e-11
1.50377404e-11
1.61801626e-11
1.74477625e-11
1.88563806e-11
2.04315263e-11
2.21665616e-11
2.4086117e-11
2.62049052e-11
2.85749727e-11
3.11907402e-11
3.40059188e-11
3.70687741e-11
4.03641976e-11
4.39061275e-11
4.76503215e-11
5.15858312e-11
5.57202042e-11
6.0067764e-11
6.46020418e-11
6.92217073e-11
7.40653377e-11
7.92606336e-11
8.47978751e-11
9.06730603e-11
9.68654064e-11
1.03364887e-10
1.10116188e-10
1.17057132e-10
1.24125525e-10
1.31283569e-10
1.38555129e-10
1.4601029e-10
1.53742832e-10
1.61853694e-10
1.70431306e-10
1.79529825e-10
1.89160547e-10
1.9930728e-10
2.09979994e-10
2.21285046e-10
2.32314478e-10
2.43442787e-10
2.54571645e-10
2.65564555e-10
2.76311129e-10
2.8672994e-10
2.96761873e-10
3.06366367e-10
3.1552103e-10
3.24223083e-10
3.32491464e-10
3.40368731e-10
3.47921796e-10
3.55239992e-10
3.62428554e-10
3.69596139e-10
3.76840775e-10
3.84230095e-10
3.91542523e-10
3.98834111e-10
4.05989568e-10
4.12880314e-10
4.19391706e-10
4.25438254e-10
4.30969814e-10
4.35970022e-10
4.40449042e-10
4.44432527e-10
4.47945925e-10
4.50988594e-10
4.53480504e-10
4.55140193e-10
1.16619473e-06
1.82933414e-06
2.27260102e-06
2.64427367e-06
3.01687863e-06
3.40125869e-06
3.7876847e-06
4.17168188e-06
4.55356165e-06
4.93680948e-06
5.32621073e-06
5.72027182e-06
6.11191604e-06
6.49470622e-06
6.86459626e-06
7.22136429e-06
7.5687376e-06
7.911978e-06
8.25503625e-06
8.59823324e-06
8.93940078e-06
9.27545711e-06
9.60430927e-06
9.92546568e-06
1.02404908e-05
1.05512926e-05
1.08609846e-05
1.11692403e-05
1.14761723e-05
1.17801654e-05
1.2079462e-05
1.23728458e-05
1.26603988e-05
1.29433724e-05
1.32235873e-05
1.35027708e-05
1.37818667e-05
1.40611006e-05
1.43399406e-05
1.46178779e-05
1.4894779e-05
1.51712643e-05
1.5448508e-05
1.5727623e-05
1.60099981e-05
1.62954429e-05
1.65833794e-05
1.6872843e-05
1.71628989e-05
1.74530287e-05
1.77433592e-05
1.80346962e-05
1.83282614e-05
1.86254785e-05
1.89275395e-05
1.92353051e-05
1.95491503e-05
1.98691643e-05
2.01953608e-05
2.05278285e-05
2.0866982e-05
2.12131757e-05
2.15668848e-05
2.19283162e-05
2.22981146e-05
2.26769129e-05
2.3065428e-05
2.34645873e-05
2.38753318e-05
2.42984116e-05
2.47343334e-05
2.51832181e-05
2.56448854e-05
2.61188109e-05
2.66044574e-05
2.71012509e-05
2.76086589e-05
2.81264604e-05
2.86543636e-05
2.91920633e-05
2.97391782e-05
3.02950565e-05
3.08587424e-05
3.14290753e-05
3.20046572e-05
3.25841201e-05
3.31659731e-05
3.37488728e-05
3.43316563e-05
3.49132944e-05
3.54929143e-05
3.60697281e-05
3.66429984e-05
3.72119963e-05
3.77759327e-05
3.83338973e-05
3.88848494e-05
3.94276227e-05
3.99607632e-05
4.04825465e-05
4.09909856e-05
4.1483647e-05
4.19576602e-05
4.24097556e-05
4.28365898e-05
4.32335636e-05
4.35942325e-05
4.39102493e-05
4.41713073e-05
4.43650689e-05
4.44768365e-05
4.44875858e-05
4.43736295e-05
4.41063546e-05
4.36521496e-05
4.29728777e-05
4.20276534e-05
4.07767516e-05
3.91877655e-05
3.72442599e-05
3.49539229e-05
3.235709e-05
2.95308253e-05
2.65860084e-05
2.36349696e-05
2.07830267e-05
1.81076393e-05
1.56661065e-05
1.34816585e-05
1.15538626e-05
9.86823691e-06
8.40267645e-06
7.13189128e-06
6.03105265e-06
5.07502778e-06
4.24340738e-06
3.51438965e-06
2.87657956e-06
2.31623207e-06
1.82552035e-06
1.4005213e-06
1.04382984e-06
7.59449401e-07
5.46038929e-07
3.91712445e-07
2.81400388e-07
2.0266125e-07
1.46373863e-07
1.06070462e-07
7.71435012e-08
5.62558372e-08
4.11249956e-08
3.01465113e-08
2.21329015e-08
1.62813641e-08
1.20028525e-08
8.86899219e-09
6.568642e-09
4.87683342e-09
3.63013219e-09
2.70931895e-09
2.02710182e-09
1.52036109e-09
1.14309311e-09
8.61560954e-10
6.50939938e-10
4.9291459e-10
3.74057894e-10
2.844875e-10
2.16870424e-10
1.65756362e-10
1.2709239e-10
9.78923771e-11
7.58437122e-11
5.91541923e-11
4.65204853e-11
3.69576327e-11
2.972096e-11
2.42501127e-11
2.01231174e-11
1.70219312e-11
1.47066485e-11
1.29962239e-11
1.17540679e-11
1.08772285e-11
1.02883148e-11
9.92966967e-12
9.75930919e-12
9.74779906e-12
9.87366706e-12
1.01155467e-11
1.04621656e-11
1.09084167e-11
1.14504707e-11
1.20867754e-11
1.28187549e-11
1.36570187e-11
1.46085413e-11
1.56750798e-11
1.6862816e-11
1.81711671e-11
1.96221815e-11
2.12429253e-11
2.30369612e-11
2.50238508e-11
2.71979749e-11
2.96272344e-11
3.22987978e-11
3.51888508e-11
3.83344736e-11
4.1697792e-11
4.53075669e-11
4.91209521e-11
5.3147072e-11
5.73656672e-11
6.17791879e-11
6.6378631e-11
7.10901288e-11
7.60204243e-11
8.12524547e-11
8.68178816e-11
9.27177407e-11
9.8937669e-11
1.05468371e-10
1.12240877e-10
1.19195616e-10
1.26281207e-10
1.33466524e-10
1.40773644e-10
1.48268492e-10
1.56042162e-10
1.64191088e-10
1.72796706e-10
1.81906286e-10
1.91527442e-10
2.01643264e-10
2.1226644e-10
2.23617555e-10
2.34481917e-10
2.45521987e-10
2.56569662e-10
2.67478228e-10
2.7814026e-10
2.88478477e-10
2.98436334e-10
3.07974372e-10
3.17070378e-10
3.257212e-10
3.33944984e-10
3.41783073e-10
3.49300679e-10
3.56584906e-10
3.63738239e-10
3.70866014e-10
3.78060604e-10
3.85365769e-10
3.92632676e-10
3.99858362e-10
4.06939105e-10
4.13753092e-10
4.20189984e-10
4.26167128e-10
4.31636006e-10
4.36580913e-10
4.41012005e-10
4.44954552e-10
4.48433401e-10
4.5144743e-10
4.53916793e-10
4.55562592e-10
1.3077549e-05
1.21589852e-05
1.13001312e-05
1.1245043e-05
1.16154989e-05
1.19587145e-05
1.21635191e-05
1.2358783e-05
1.26023299e-05
1.29174055e-05
1.33091782e-05
1.36925175e-05
1.40006589e-05
1.42268946e-05
1.44009539e-05
1.45624675e-05
1.4747732e-05
1.49764373e-05
1.52393313e-05
1.55052137e-05
1.57494379e-05
1.59632608e-05
1.61524087e-05
1.6330352e-05
1.65119534e-05
1.67074237e-05
1.6919614e-05
1.71407347e-05
1.73602944e-05
1.75695115e-05
1.77647775e-05
1.79476358e-05
1.81236161e-05
1.82994112e-05
1.84803e-05
1.86682335e-05
1.88615107e-05
1.90567912e-05
1.9251157e-05
1.94438529e-05
1.96362665e-05
1.98313647e-05
2.00323227e-05
2.02411208e-05
2.04576762e-05
2.06792299e-05
2.09024839e-05
2.11246827e-05
2.134454e-05
2.1562431e-05
2.17800729e-05
2.1999917e-05
2.22243369e-05
2.24551317e-05
2.26929805e-05
2.29377043e-05
2.31884221e-05
2.34442756e-05
2.37048453e-05
2.3970276e-05
2.42412896e-05
2.45180938e-05
2.48008441e-05
2.50895149e-05
2.53847282e-05
2.56873512e-05
2.59984634e-05
2.63192841e-05
2.66509956e-05
2.69943812e-05
2.73498897e-05
2.77174307e-05
2.80966676e-05
2.84870616e-05
2.88882762e-05
2.93001187e-05
2.97226478e-05
3.01560681e-05
3.06005161e-05
3.10560258e-05
3.15223317e-05
3.19987694e-05
3.24842754e-05
3.29775079e-05
3.34769349e-05
3.39810742e-05
3.44884138e-05
3.49976615e-05
3.55077259e-05
3.6017646e-05
3.65265734e-05
3.70336752e-05
3.75381048e-05
3.80389287e-05
3.85350894e-05
3.90253658e-05
3.95083468e-05
3.99825109e-05
4.04458768e-05
4.08963612e-05
4.13314856e-05
4.17483506e-05
4.21436012e-05
4.25135728e-05
4.2854868e-05
4.31621883e-05
4.34278529e-05
4.36422587e-05
4.3794152e-05
4.38705834e-05
4.38567726e-05
4.37330988e-05
4.34759615e-05
4.30579695e-05
4.24482451e-05
4.16132095e-05
4.0518675e-05
3.91340822e-05
3.74382646e-05
3.54272332e-05
3.31190214e-05
3.05599636e-05
2.78263287e-05
2.50233345e-05
2.22405469e-05
1.95652171e-05
1.70570173e-05
1.4770559e-05
1.27234657e-05
1.09135072e-05
9.32699607e-06
7.94372851e-06
6.7404709e-06
5.69508155e-06
4.78373611e-06
3.9893422e-06
3.29359754e-06
2.68607152e-06
2.15307669e-06
1.68807609e-06
1.2894379e-06
9.60582193e-07
7.02237484e-07
5.08780874e-07
3.67669209e-07
2.65750382e-07
1.92355753e-07
1.39510944e-07
1.01440359e-07
7.39736594e-08
5.4073426e-08
3.96153656e-08
2.90947826e-08
2.14017989e-08
1.57720283e-08
1.16459592e-08
8.61729096e-09
6.39033915e-09
4.7500599e-09
3.53976864e-09
2.64491199e-09
1.98127026e-09
1.48766538e-09
1.11971545e-09
8.44815671e-10
6.38939381e-10
4.84322394e-10
3.67902342e-10
2.80080213e-10
2.13723643e-10
1.63522204e-10
1.25521212e-10
9.68023723e-11
7.51130815e-11
5.86799297e-11
4.62404291e-11
3.68216581e-11
2.96922654e-11
2.43018187e-11
2.02356359e-11
1.71810326e-11
1.49020616e-11
1.32206107e-11
1.20022576e-11
1.11456607e-11
1.05746637e-11
1.02325715e-11
1.00781534e-11
1.00826787e-11
1.02240513e-11
1.04815307e-11
1.08438761e-11
1.13067953e-11
1.18669991e-11
1.25231446e-11
1.32769516e-11
1.41386819e-11
1.51169863e-11
1.62132467e-11
1.74363547e-11
1.87805988e-11
2.02677023e-11
2.1928632e-11
2.37687149e-11
2.58072081e-11
2.80307536e-11
3.05114608e-11
3.32321881e-11
3.61771919e-11
3.93852222e-11
4.28089626e-11
4.64786688e-11
5.03513635e-11
5.44423486e-11
5.87259126e-11
6.31988661e-11
6.78551636e-11
7.26308392e-11
7.76224407e-11
8.28945559e-11
8.8490321e-11
9.44143758e-11
1.00657151e-10
1.07209392e-10
1.13999517e-10
1.20968086e-10
1.28068916e-10
1.35275655e-10
1.42610421e-10
1.50136837e-10
1.5794284e-10
1.66120531e-10
1.74745762e-10
1.83861228e-10
1.93472059e-10
2.03560532e-10
2.14137894e-10
2.25546739e-10
2.36248367e-10
2.47224504e-10
2.58207505e-10
2.69047142e-10
2.79639906e-10
2.8991219e-10
2.99809485e-10
3.09293151e-10
3.1834109e-10
3.26949831e-10
3.35136868e-10
3.42942554e-10
3.50430721e-10
3.57686669e-10
3.64810677e-10
3.71905481e-10
3.7905962e-10
3.86307946e-10
3.93527394e-10
4.00696899e-10
4.07716194e-10
4.14467563e-10
4.20843817e-10
4.26764491e-10
4.32182361e-10
4.37082255e-10
4.41474325e-10
4.45383505e-10
4.48834161e-10
4.51824799e-10
4.54275712e-10
4.55910052e-10
6.86120856e-20
6.00835835e-20
4.3976329e-20
3.12663328e-20
2.22249855e-20
1.59505684e-20
1.15836705e-20
8.54302636e-21
6.45692063e-21
4.97127359e-21
3.89843091e-21
3.1143706e-21
2.52291376e-21
2.08648395e-21
1.74681999e-21
1.49321057e-21
1.30708783e-21
1.14963774e-21
1.02711089e-21
9.24157693e-22
8.42435416e-22
7.71336175e-22
7.09579683e-22
6.63661675e-22
6.18576959e-22
5.88719505e-22
5.58469254e-22
5.34268175e-22
5.12865195e-22
4.93569288e-22
4.80364276e-22
6.31609393e-22
1.37853911e-20
9.58229596e-19
6.8051151e-17
4.87507951e-15
3.54790331e-13
2.65159479e-11
2.1057141e-09
1.81978473e-07
1.98541609e-20
2.69690359e-20
2.65893104e-20
2.36846484e-20
2.02344786e-20
1.69412823e-20
1.39973633e-20
1.1464836e-20
9.3361695e-21
7.5778359e-21
6.15491377e-21
5.00579394e-21
4.12847259e-21
3.38468531e-21
2.83263069e-21
2.39539725e-21
2.0425726e-21
1.76820396e-21
1.53897546e-21
1.36492121e-21
1.21103246e-21
1.07339653e-21
9.64402747e-22
8.87871981e-22
8.07753199e-22
7.50705591e-22
7.00640079e-22
6.55847974e-22
6.18509919e-22
5.87651215e-22
5.59080812e-22
5.60307472e-22
2.54293396e-21
1.56626362e-19
1.09542222e-17
7.65582749e-16
5.33279481e-14
3.68778016e-12
2.51092567e-10
1.61655912e-08
5.22793427e-21
9.76437546e-21
1.20567385e-20
1.2812808e-20
1.26933459e-20
1.20933928e-20
1.12235773e-20
1.02295223e-20
9.16927566e-21
8.12444209e-21
7.12670226e-21
6.19788591e-21
5.382564e-21
4.64867163e-21
4.01768155e-21
3.45354926e-21
2.98620358e-21
2.59617237e-21
2.26064692e-21
1.98021965e-21
1.73588271e-21
1.54103903e-21
1.36590439e-21
1.22547726e-21
1.10564261e-21
1.00535793e-21
9.22200729e-22
8.44730419e-22
7.80363205e-22
7.25208976e-22
6.79755265e-22
6.43173831e-22
9.58116647e-22
2.69904633e-20
1.78708111e-18
1.17709698e-16
7.5268041e-15
4.60560647e-13
2.60800135e-11
1.28850709e-09
9.62759707e-22
3.76580199e-21
6.37520203e-21
8.0125541e-21
8.83635453e-21
9.10612461e-21
8.99601234e-21
8.64560216e-21
8.14884171e-21
7.54534464e-21
6.91304203e-21
6.24985552e-21
5.6069173e-21
4.99115266e-21
4.42586378e-21
3.9038062e-21
3.4373819e-21
3.03159085e-21
2.66936033e-21
2.35292797e-21
2.07254501e-21
1.83457921e-21
1.62496348e-21
1.44825786e-21
1.30000805e-21
1.17325407e-21
1.06240239e-21
9.66984135e-22
8.82574247e-22