/*--------------------------------*- C++ -*----------------------------------*\
  =========                 |
  \\      /  F ield         | OpenFOAM: The Open Source CFD Toolbox
   \\    /   O peration     | Website:  https://openfoam.org
    \\  /    A nd           | Version:  6
     \\/     M anipulation  |
\*---------------------------------------------------------------------------*/
FoamFile
{
    version     2.0;
    format      ascii;
    class       volScalarField;
    location    "25000";
    object      CH4;
}
// * * * * * * * * * * * * * * * * * * * * * * * * * * * * * * * * * * * * * //

dimensions      [0 0 0 0 0 0 0];

internalField   nonuniform List<scalar> 
44870
(
0.1561
0.1561
0.1561
0.1561
0.1561
0.1561
0.1561
0.1561
0.1561
0.1561
0.1561
0.1561
0.1561
0.1561
0.1561
0.1561
0.1561
0.1561
0.1561
0.1561
0.1561
0.1561
0.1561
0.1561
0.1561
0.1561
0.1561
0.1561
0.1561
0.1561
0.1561
0.1561
0.1561
0.1561
0.1561
0.1561
0.1561
0.1561
0.1561
0.1561
0.1561
0.1561
0.1561
0.1561
0.1561
0.1561
0.1561
0.1561
0.1561
0.1561
0.1561
0.1561
0.1561
0.1561
0.1561
0.1561
0.1561
0.1561
0.1561
0.1561
0.1561
0.1561
0.1561
0.1561
0.1561
0.1561
0.1561
0.1561
0.1561
0.1561
0.1561
0.1561
0.1561
0.1561
0.1561
0.1561
0.1561
0.1561
0.1561
0.156099999
0.1561
0.1561
0.1561
0.1561
0.1561
0.1561
0.1561
0.1561
0.1561
0.1561
0.1561
0.1561
0.1561
0.1561
0.1561
0.1561
0.1561
0.1561
0.1561
0.1561
0.1561
0.1561
0.1561
0.1561
0.1561
0.1561
0.1561
0.1561
0.1561
0.1561
0.1561
0.1561
0.1561
0.1561
0.1561
0.1561
0.1561
0.1561
0.1561
0.156099971
0.1561
0.1561
0.1561
0.1561
0.1561
0.1561
0.1561
0.1561
0.1561
0.1561
0.1561
0.1561
0.1561
0.1561
0.1561
0.1561
0.1561
0.1561
0.1561
0.1561
0.1561
0.1561
0.1561
0.1561
0.1561
0.1561
0.1561
0.1561
0.1561
0.1561
0.1561
0.1561
0.1561
0.1561
0.1561
0.1561
0.1561
0.1561
0.156099997
0.156099284
0.1561
0.1561
0.1561
0.1561
0.1561
0.1561
0.1561
0.1561
0.1561
0.1561
0.1561
0.1561
0.1561
0.1561
0.1561
0.1561
0.1561
0.1561
0.1561
0.1561
0.1561
0.1561
0.1561
0.1561
0.1561
0.1561
0.1561
0.1561
0.1561
0.1561
0.1561
0.1561
0.1561
0.1561
0.1561
0.1561
0.1561
0.1561
0.156099949
0.156088933
0.156099998
0.156099991
0.156099978
0.156099952
0.156099907
0.156099834
0.156099721
0.15609955
0.156099304
0.156098957
0.156098481
0.156097838
0.156096988
0.156095877
0.156094444
0.156092617
0.156090308
0.156087422
0.15608383
0.156079403
0.15607397
0.156067347
0.156059308
0.156049591
0.156037889
0.156023832
0.156007051
0.155986966
0.155963141
0.155934771
0.155901188
0.155861488
0.155814639
0.155759666
0.155695146
0.155619931
0.155532247
0.155430677
0.155313161
0.155177859
0.155022369
0.154844255
0.154640795
0.154409425
0.154146754
0.153850374
0.153517657
0.153146032
0.152732945
0.152275771
0.151771908
0.151218663
0.150613521
0.149954026
0.149238188
0.148464376
0.14763172
0.14673997
0.145789639
0.144781808
0.143718
0.142600117
0.141430075
0.140209975
0.138941317
0.137625602
0.136263256
0.134854715
0.133399544
0.131897973
0.130350324
0.12875792
0.127123311
0.125448888
0.123739346
0.12199607
0.12022608
0.118430736
0.116612757
0.114773943
0.11291589
0.111039847
0.109146494
0.107236571
0.105310703
0.103369962
0.101414992
0.0994473909
0.097468596
0.0954800387
0.0934834588
0.0914803757
0.0894725568
0.0874616054
0.0854489105
0.0834355515
0.0814222935
0.0794094637
0.0773970168
0.0753842199
0.0733707278
0.0713554091
0.0693375146
0.067316146
0.0652906678
0.0632600078
0.0612229378
0.059178383
0.05712429
0.0550584248
0.0529776448
0.0508782703
0.0487559131
0.0466049775
0.0444188471
0.0421898464
0.0399092976
0.0375678535
0.0351563261
0.0326673766
0.0300985491
0.0274568862
0.0247645894
0.0220633151
0.0194134238
0.0168840081
0.014537993
0.0124189003
0.0105457764
0.00891597076
0.00751207031
0.00630896691
0.00527939911
0.0043972872
0.00363939318
0.00298617902
0.00242172151
0.00193374201
0.00151330232
0.0011542085
0.000855864416
0.000616533304
0.000434089299
0.000302955803
0.000212255643
0.000149850206
0.000106527067
7.6220788e-05
5.53292592e-05
4.0246344e-05
2.93076471e-05
2.13934043e-05
1.56773731e-05
1.15260517e-05
8.49597822e-06
6.27613648e-06
4.64508225e-06
3.44339675e-06
2.55574649e-06
1.89874832e-06
1.41286309e-06
1.0529603e-06
7.85971798e-07
5.87635341e-07
4.40089637e-07
3.30160819e-07
2.48124348e-07
1.86797637e-07
1.40871402e-07
1.06416947e-07
8.05232359e-08
6.10299116e-08
4.63312516e-08
3.52321986e-08
2.68365867e-08
2.04725024e-08
1.56436748e-08
1.19759176e-08
9.18762996e-09
7.0655307e-09
5.44804373e-09
4.21339108e-09
3.26966528e-09
2.54743496e-09
1.99416531e-09
1.56998974e-09
1.24460304e-09
9.95003198e-10
8.03750448e-10
6.57563999e-10
5.46214845e-10
4.62121862e-10
3.99270473e-10
3.53167822e-10
3.20235799e-10
2.97741489e-10
2.83668453e-10
2.76537243e-10
2.75203147e-10
2.7870103e-10
2.8648268e-10
2.98070855e-10
3.13348422e-10
3.31845414e-10
3.53727563e-10
3.78850222e-10
4.07515619e-10
4.39523139e-10
4.74098321e-10
5.11735943e-10
5.52000281e-10
5.94884949e-10
6.39700644e-10
6.86407861e-10
7.35050691e-10
7.85568313e-10
8.37403169e-10
8.88412928e-10
9.42604785e-10
1.00147821e-09
1.06307925e-09
1.12787442e-09
1.19575184e-09
1.26661768e-09
1.33978326e-09
1.41448027e-09
1.48992473e-09
1.56565057e-09
1.64196625e-09
1.71978696e-09
1.80038645e-09
1.88519426e-09
1.97551531e-09
2.07222504e-09
2.1756475e-09
2.28572251e-09
2.40256332e-09
2.52591493e-09
2.64941074e-09
2.77391952e-09
2.89881202e-09
3.02265733e-09
3.14409616e-09
3.26206185e-09
3.37576697e-09
3.48466588e-09
3.58844529e-09
3.68703942e-09
3.78065792e-09
3.86981496e-09
3.95534571e-09
4.03838949e-09
4.12031218e-09
4.2025508e-09
4.28646541e-09
4.37381413e-09
4.45927111e-09
4.54563625e-09
4.63106045e-09
4.71365587e-09
4.79181012e-09
4.86431404e-09
4.9304323e-09
4.98988335e-09
5.04274786e-09
5.08933223e-09
5.1299825e-09
5.1647901e-09
5.19300077e-09
5.21164057e-09
0.156099958
0.156099848
0.156099654
0.156099327
0.156098799
0.156097986
0.156096793
0.156095098
0.156092766
0.15608962
0.156085473
0.156080079
0.156073186
0.156064469
0.156053584
0.156040139
0.156023673
0.156003722
0.155979682
0.155951019
0.155917036
0.155877045
0.155830308
0.155775916
0.155713147
0.155640873
0.155558315
0.155464193
0.155357674
0.155237438
0.155102563
0.154951908
0.154784611
0.154599783
0.154396598
0.154174386
0.153932277
0.153669724
0.15338572
0.153079733
0.152750689
0.15239809
0.152021075
0.1516196
0.151192265
0.15073908
0.15025946
0.14975261
0.14921753
0.148653005
0.148057665
0.147429961
0.146768259
0.146070792
0.14533576
0.144561285
0.143745586
0.142886988
0.141984108
0.141035874
0.140041647
0.139001146
0.137914454
0.13678184
0.135603558
0.134380052
0.133111169
0.131796871
0.130436729
0.129030816
0.127579373
0.126083452
0.124544982
0.122965992
0.121350108
0.11969873
0.118017701
0.116308288
0.114572994
0.112813497
0.111031572
0.10922847
0.107404995
0.105562082
0.103700597
0.101821671
0.0999262232
0.0980158059
0.0960919755
0.0941561461
0.0922101306
0.0902556106
0.0882942806
0.0863277412
0.0843573829
0.0823843155
0.080409347
0.0784328568
0.0764548679
0.0744746933
0.0724921218
0.0705061268
0.068516035
0.066521023
0.0645205226
0.0625134527
0.0604986885
0.0584751632
0.0564408376
0.0543934734
0.0523300649
0.0502469703
0.0481397547
0.0460029557
0.0438301303
0.0416138189
0.0393456747
0.0370168475
0.0346188738
0.0321454232
0.0295953537
0.0269772041
0.0243144994
0.0216494146
0.0190414525
0.0165573298
0.014256813
0.0121805225
0.010345546
0.00874846626
0.00737192599
0.0061913501
0.00518026101
0.00431337323
0.00356813334
0.00292562473
0.00237039722
0.00189058233
0.00147757419
0.00112586478
0.000834376322
0.000601267011
0.000424032078
0.000296761841
0.000208477815
0.000147488638
0.000105011074
7.52230739e-05
5.46287671e-05
3.97463353e-05
2.89593462e-05
2.11514668e-05
1.55129315e-05
1.14153348e-05
8.42077323e-06
6.22468089e-06
4.60966541e-06
3.41886029e-06
2.53861663e-06
1.88667427e-06
1.4041483e-06
1.04665836e-06
7.81407329e-07
5.843272e-07
4.37691134e-07
3.2842078e-07
2.46860684e-07
1.85878596e-07
1.40201827e-07
1.0592818e-07
8.01657452e-08
6.07679347e-08
4.6138956e-08
3.50910392e-08
2.673278e-08
2.03957558e-08
1.5587072e-08
1.19342255e-08
9.15697392e-09
7.04303194e-09
5.43158678e-09
4.20141686e-09
3.26101992e-09
2.54126885e-09
1.98985951e-09
1.56708842e-09
1.24275863e-09
9.93953238e-10
8.03312097e-10
6.57614397e-10
5.46640448e-10
4.6285948e-10
4.00247348e-10
3.54353214e-10
3.21604868e-10
2.99266535e-10
2.85333255e-10
2.78344589e-10
2.77159002e-10
2.80787083e-10
2.88705873e-10
3.00439115e-10
3.15888338e-10
3.34548454e-10
3.56557301e-10
3.81838892e-10
4.10699348e-10
4.42915238e-10
4.77640799e-10
5.15407936e-10
5.55865621e-10
5.9897671e-10
6.44019894e-10
6.90869671e-10
7.39640209e-10
7.90347303e-10
8.42415941e-10
8.93454828e-10
9.47817997e-10
1.00688578e-09
1.06854412e-09
1.13341484e-09
1.20132921e-09
1.27220352e-09
1.3453922e-09
1.42013012e-09
1.49562438e-09
1.57141129e-09
1.64781304e-09
1.72574843e-09
1.80647474e-09
1.89139496e-09
1.98179423e-09
2.07853685e-09
2.18193931e-09
2.29193787e-09
2.40865613e-09
2.53206968e-09
2.65522229e-09
2.77947129e-09
2.90413835e-09
3.02775959e-09
3.14897635e-09
3.26673126e-09
3.38024379e-09
3.48897154e-09
3.59260197e-09
3.69106842e-09
3.78457842e-09
3.87364273e-09
3.95909166e-09
4.04205801e-09
4.12389936e-09
4.20604243e-09
4.28983411e-09
4.37717005e-09
4.46227198e-09
4.54847149e-09
4.63369384e-09
4.71607649e-09
4.79402291e-09
4.86633289e-09
4.93227613e-09
4.99157332e-09
5.04430531e-09
5.09077722e-09
5.13133339e-09
5.16606397e-09
5.19421548e-09
5.21282813e-09
0.156098405
0.156094998
0.156089838
0.156081868
0.156070182
0.15605393
0.156032214
0.156004026
0.155968371
0.155924134
0.155870316
0.155805818
0.155729737
0.155641051
0.155538927
0.155422491
0.155290971
0.155143766
0.154980266
0.154800122
0.154602933
0.154388476
0.154156551
0.153906982
0.153639764
0.153354593
0.15305178
0.152731019
0.152393143
0.152038281
0.151667126
0.151280362
0.150878826
0.150463122
0.150033898
0.149591413
0.149135804
0.148666968
0.148184576
0.147688543
0.147178501
0.146654556
0.146116349
0.145564383
0.144997323
0.1444155
0.14381853
0.143205896
0.142576991
0.141931113
0.141267533
0.140585313
0.13988338
0.139160439
0.138414996
0.137645346
0.136849677
0.136026104
0.135172804
0.134288099
0.133370521
0.132418765
0.131431816
0.13040853
0.129348201
0.128250073
0.127112997
0.125936165
0.124718719
0.123460164
0.122160253
0.120819332
0.119438269
0.118018238
0.116561254
0.115068363
0.11354329
0.111986921
0.110401057
0.10878707
0.107146387
0.105480124
0.103789222
0.102074668
0.100337536
0.098578931
0.0968001163
0.0950024112
0.0931874627
0.0913568845
0.0895123579
0.0876555852
0.0857882396
0.0839118715
0.0820278215
0.0801372142
0.0782408918
0.0763392835
0.0744325082
0.0725200067
0.0706017194
0.0686768416
0.0667448237
0.064804985
0.0628568551
0.0608993792
0.0589316122
0.0569524365
0.0549599361
0.052951853
0.0509253861
0.0488769017
0.0468020727
0.0446957056
0.0425517099
0.0403631402
0.038122423
0.0358218482
0.0334545818
0.0310165086
0.0285092954
0.0259445495
0.0233483138
0.0207634164
0.0182470793
0.0158607679
0.0136576468
0.0116724444
0.00991844143
0.0083907373
0.00707223893
0.00593951908
0.0049677838
0.00413342024
0.00341529272
0.00279581249
0.00226049557
0.0017983487
0.0014014454
0.00106593669
0.000789257614
0.000569316993
0.000403121502
0.000283831695
0.00020051943
0.000142473855
0.000101774659
7.30852631e-05
5.30903012e-05
3.86705748e-05
2.82110557e-05
2.06309848e-05
1.51577355e-05
1.11751034e-05
8.25745036e-06
6.11284384e-06
4.53264578e-06
3.36546516e-06
2.50131352e-06
1.86037814e-06
1.3851836e-06
1.03293742e-06
7.71464834e-07
5.77118987e-07
4.32463607e-07
3.24627432e-07
2.44105148e-07
1.8387401e-07
1.38740974e-07
1.04861527e-07
7.93853827e-08
6.01959313e-08
4.57190002e-08
3.47827407e-08
2.65060446e-08
2.0227999e-08
1.54633829e-08
1.18431203e-08
9.08998714e-09
6.99387292e-09
5.39562845e-09
4.17525415e-09
3.24214261e-09
2.52782382e-09
1.98048017e-09
1.56076733e-09
1.2387495e-09
9.91701901e-10
8.0240972e-10
6.57764871e-10
5.4765107e-10
4.64509616e-10
4.02443846e-10
3.57002075e-10
3.24638956e-10
3.02636591e-10
2.89023189e-10
2.82354344e-10
2.81486749e-10
2.85412856e-10
2.93632512e-10
3.05678594e-10
3.21485019e-10
3.40514751e-10
3.62849752e-10
3.88474327e-10
4.17721667e-10
4.50353862e-10
4.85455412e-10
5.23576766e-10
5.64431854e-10
6.07973703e-10
6.53485311e-10
7.00722228e-10
7.49834081e-10
8.00912889e-10
8.53431564e-10
9.05516902e-10
9.60022386e-10
1.01883192e-09
1.08060477e-09
1.14560443e-09
1.21361783e-09
1.28454852e-09
1.35779068e-09
1.43259141e-09
1.50817722e-09
1.58409892e-09
1.66068619e-09
1.73885645e-09
1.81984013e-09
1.90499545e-09
1.99556303e-09
2.09237676e-09
2.19573462e-09
2.30556628e-09
2.4220267e-09
2.54558796e-09
2.66796737e-09
2.79165807e-09
2.91583847e-09
3.0389715e-09
3.15970279e-09
3.2769962e-09
3.39008654e-09
3.49843855e-09
3.60174124e-09
3.699926e-09
3.79319567e-09
3.88205361e-09
3.96731962e-09
4.05011239e-09
4.13177171e-09
4.21370213e-09
4.29721754e-09
4.38375177e-09
4.46882899e-09
4.5546954e-09
4.63947564e-09
4.7213932e-09
4.79888522e-09
4.87077094e-09
4.93633101e-09
4.99529089e-09
5.04773179e-09
5.09395639e-09
5.13430538e-09
5.16886602e-09
5.19688612e-09
5.2154272e-09
0.156035896
0.155941139
0.155815775
0.155657806
0.155467812
0.155246136
0.154993703
0.154711358
0.154400697
0.154063296
0.153701388
0.153317033
0.152912924
0.152490934
0.152053543
0.151602281
0.151139527
0.15066713
0.150186623
0.149699563
0.149206799
0.148709338
0.148207243
0.147701105
0.147190391
0.146675322
0.146155725
0.145631352
0.145103637
0.144572074
0.1440368
0.143497868
0.142955014
0.142407705
0.141855276
0.141296972
0.140732232
0.140160466
0.139581436
0.138995175
0.138401716
0.137801282
0.137193784
0.13657985
0.135958406
0.13533014
0.134695008
0.134052794
0.13340311
0.132745476
0.132079246
0.131403557
0.1307174
0.130019516
0.129308514
0.128582809
0.12784073
0.12708055
0.126300567
0.125499244
0.12467507
0.123826694
0.122952752
0.122051919
0.121122894
0.120164319
0.119174649
0.118152539
0.117096656
0.116005949
0.114879591
0.11371717
0.11251857
0.111284036
0.110014223
0.108709575
0.107371775
0.106001157
0.104598669
0.10316525
0.101701555
0.10020848
0.0986869751
0.0971378555
0.0955622294
0.0939610546
0.0923356426
0.090687324
0.0890175824
0.0873279947
0.0856201277
0.0838955756
0.0821559188
0.0804025798
0.0786367876
0.0768596389
0.0750719591
0.0732741425
0.0714664211
0.0696485589
0.0678204396
0.0659815445
0.0641314662
0.0622697038
0.0603958179
0.0585089877
0.0566083186
0.0546926011
0.052760161
0.0508087715
0.0488357002
0.0468375527
0.0448102359
0.0427489539
0.0406482187
0.0385019577
0.0363038903
0.0340481513
0.0317304539
0.0293499906
0.0269124166
0.0244333405
0.0219415714
0.0194796991
0.0171006679
0.0148580557
0.0127959705
0.0109414309
0.00930304498
0.00787427449
0.00663863254
0.00557440187
0.00465925041
0.00387191604
0.00319319137
0.00260740993
0.00210136762
0.00166535058
0.00129361885
0.000981538361
0.000726154596
0.000525170823
0.000374370443
0.000265885637
0.000189295238
0.000135308268
9.71093998e-05
6.99863364e-05
5.0804739e-05
3.71059981e-05
2.71211927e-05
1.98707171e-05
1.46398e-05
1.08194928e-05
8.01500764e-06
5.94657887e-06
4.41802095e-06
3.28590233e-06
2.44565696e-06
1.82110048e-06
1.35692416e-06
1.01246864e-06
7.56620931e-07
5.66351504e-07
4.2465137e-07
3.18956027e-07
2.39983499e-07
1.80874182e-07
1.36553774e-07
1.03263761e-07
7.82159217e-08
5.93383481e-08
4.50891166e-08
3.43202815e-08
2.61643387e-08
1.99760045e-08
1.52776667e-08
1.17063249e-08
8.98940698e-09
6.92006567e-09
5.34164694e-09
4.13599137e-09
3.21383962e-09
2.5076976e-09
1.9664636e-09
1.55134066e-09
1.23280703e-09
9.88425652e-10
8.0117175e-10
6.58094648e-10
5.4924048e-10
4.67113194e-10
4.05883959e-10
3.6111604e-10
3.29320459e-10
3.07825948e-10
2.94711362e-10
2.88528399e-10
2.88132209e-10
2.92542048e-10
3.01213997e-10
3.13733654e-10
3.30047901e-10
3.49651626e-10
3.72554368e-10
3.98682533e-10
4.28485151e-10
4.61677248e-10
4.97401435e-10
5.3615216e-10
5.77574613e-10
6.21711846e-10
6.67861138e-10
7.15780216e-10
7.65489844e-10
8.17086204e-10
8.70175541e-10
9.2342362e-10
9.78549211e-10
1.03714774e-09
1.09904628e-09
1.16419331e-09
1.23235374e-09
1.30341969e-09
1.37674696e-09
1.45160909e-09
1.52729956e-09
1.60340821e-09
1.68026331e-09
1.75876119e-09
1.84010228e-09
1.92559186e-09
2.01640513e-09
2.11332122e-09
2.21660658e-09
2.32618228e-09
2.4422471e-09
2.56611082e-09
2.68721881e-09
2.81009448e-09
2.93355471e-09
3.05595412e-09
3.17595285e-09
3.29254929e-09
3.40500162e-09
3.51278513e-09
3.61559101e-09
3.71334755e-09
3.80625055e-09
3.89479232e-09
3.97977691e-09
4.06230199e-09
4.14368098e-09
4.22528566e-09
4.30836346e-09
4.3937796e-09
4.47879974e-09
4.56411594e-09
4.64822393e-09
4.7294401e-09
4.80624758e-09
4.87749402e-09
4.94247639e-09
5.00092716e-09
5.05292811e-09
5.09877853e-09
5.13881373e-09
5.17311655e-09
5.20093637e-09
5.21935963e-09
0.153611494
0.152232784
0.151007545
0.149882228
0.148818391
0.147806832
0.146844598
0.145931653
0.145067794
0.144251298
0.143478924
0.142747451
0.142053594
0.141391372
0.140755981
0.14014333
0.139548838
0.138968981
0.138401092
0.137842992
0.137291922
0.136745505
0.136201568
0.135658763
0.135115726
0.134573283
0.134030304
0.133490079
0.132951688
0.132414975
0.131879445
0.131344597
0.130809426
0.130272726
0.129733606
0.129191522
0.128646389
0.128097973
0.127546456
0.126991962
0.126434629
0.125874468
0.125311349
0.124745893
0.124177502
0.123607127
0.123034864
0.122460437
0.121883288
0.121302657
0.120717631
0.120127091
0.119529904
0.11892474
0.118310346
0.117685282
0.117048165
0.116397583
0.115732209
0.115050946
0.114352596
0.113636223
0.112900535
0.112144741
0.111367177
0.110566478
0.109741255
0.108889955
0.108010955
0.107102925
0.106164572
0.105194901
0.104193062
0.103158539
0.102091028
0.10099032
0.0998564457
0.0986892503
0.0974889607
0.0962558162
0.0949900252
0.0936920422
0.0923625393
0.091002166
0.0896118961
0.0881924093
0.0867449351
0.08527071
0.0837709727
0.0822470926
0.0807004454
0.0791324459
0.0775444915
0.0759378147
0.0743135029
0.0726725704
0.0710157777
0.06934326
0.0676558495
0.0659533837
0.0642354784
0.0625020129
0.0607527401
0.0589873333
0.0572053594
0.0554063247
0.0535892937
0.0517530393
0.0498960559
0.0480162709
0.046111139
0.0441775754
0.0422119265
0.0402100395
0.0381673773
0.0360792011
0.0339411603
0.0317500149
0.029504916
0.0272092088
0.0248731846
0.0225164264
0.0201695369
0.0178728507
0.0156726995
0.0136127068
0.0117267412
0.0100335368
0.00853712993
0.00722975976
0.00609600482
0.00511628792
0.00427146595
0.00354306185
0.00291402951
0.00237119032
0.00190266098
0.00150196671
0.00116259475
0.000880008425
0.000651377474
0.00047356067
0.000340773867
0.000244565882
0.000175684685
0.000126481739
9.12994911e-05
6.61033488e-05
4.80885021e-05
3.51482609e-05
2.57455529e-05
1.89066754e-05
1.39868684e-05
1.03668953e-05
7.70120459e-06
5.73095889e-06
4.26906327e-06
3.18231646e-06
2.37305402e-06
1.76977838e-06
1.32013566e-06
9.85758405e-07
7.37230275e-07
5.52276006e-07
4.14432966e-07
3.11533337e-07
2.34585672e-07
1.76942878e-07
1.33685461e-07
1.01167023e-07
7.66802537e-08
5.82115343e-08
4.42609981e-08
3.37122149e-08
2.57142019e-08
1.96443381e-08
1.50331665e-08
1.15262127e-08
8.85698006e-09
6.82290124e-09
5.2706006e-09
4.08434433e-09
3.17665368e-09
2.48131047e-09
1.94813896e-09
1.53906637e-09
1.22513884e-09
9.84301307e-10
7.99754009e-10
6.58738804e-10
5.5153039e-10
4.70775292e-10
4.10669451e-10
3.6678855e-10
3.35739159e-10
3.14925125e-10
3.02486776e-10
2.96945495e-10
2.97163739e-10
3.0226762e-10
3.11553523e-10
3.24701828e-10
3.41638719e-10
3.62008293e-10
3.85771931e-10
4.12574331e-10
4.43088629e-10
4.76915737e-10
5.13510144e-10
5.53219045e-10
5.95382048e-10
6.40249944e-10
6.87132147e-10
7.36049797e-10
7.86663586e-10
8.38924525e-10
8.92670197e-10
9.46904838e-10
1.00294048e-09
1.06181741e-09
1.12390152e-09
1.18919898e-09
1.25754277e-09
1.32884106e-09
1.40229168e-09
1.47720333e-09
1.55299366e-09
1.62932894e-09
1.70652069e-09
1.78541904e-09
1.86719219e-09
1.95309153e-09
2.04420983e-09
2.14124485e-09
2.24441828e-09
2.35364096e-09
2.46914392e-09
2.59360083e-09
2.71277297e-09
2.83463305e-09
2.95716119e-09
3.07858975e-09
3.1976147e-09
3.31328441e-09
3.42488807e-09
3.53191445e-09
3.63405721e-09
3.73124044e-09
3.82365066e-09
3.91176563e-09
3.99636874e-09
4.07853018e-09
4.15952903e-09
4.24069528e-09
4.3232051e-09
4.40762448e-09
4.49212525e-09
4.57665836e-09
4.65986705e-09
4.74015298e-09
4.8160537e-09
4.88645318e-09
4.95066966e-09
5.00844475e-09
5.05986098e-09
5.10521356e-09
5.14483084e-09
5.17878981e-09
5.20634162e-09
5.22460266e-09
0.0971323261
0.109664607
0.116148968
0.119871969
0.122195516
0.123666305
0.124583053
0.12514354
0.125475405
0.125658512
0.125734389
0.125738933
0.125689689
0.125592416
0.125453369
0.125280518
0.125077585
0.124848893
0.124601808
0.124341217
0.124066052
0.123775635
0.123469392
0.123147814
0.122811418
0.122463703
0.122107041
0.12174611
0.12138045
0.121009756
0.120633752
0.120252211
0.119863965
0.119467899
0.119063808
0.118652361
0.118234651
0.117811244
0.117382799
0.116949659
0.116511972
0.116069735
0.115622876
0.115172399
0.114718482
0.114262275
0.113803904
0.113342952
0.112878602
0.112409871
0.111935677
0.111454774
0.110966029
0.110468176
0.109960278
0.109441101
0.10890963
0.108364801
0.107805673
0.107231545
0.106641535
0.106035068
0.10541109
0.104769132
0.104107799
0.103425884
0.102722059
0.101994926
0.101242799
0.100464377
0.099658117
0.0988228768
0.0979575246
0.0970612318
0.0961333219
0.0951731813
0.0941800908
0.0931537085
0.0920938925
0.0910004288
0.0898732881
0.0887126879
0.0875190772
0.0862929551
0.0850350938
0.0837460152
0.0824268056
0.081078499
0.0797021347
0.0782988868
0.0768699414
0.0754165533
0.0739399308
0.0724411967
0.0709213274
0.0693812061
0.0678215661
0.0662423959
0.0646450773
0.0630289714
0.0613940048
0.0597401415
0.0580672412
0.0563750798
0.0546632912
0.0529314685
0.0511787609
0.0494039775
0.0476057066
0.0457820548
0.0439307148
0.0420489306
0.0401335214
0.0381809992
0.0361877681
0.0341503342
0.0320661003
0.0299340396
0.0277559979
0.0255382159
0.0232938799
0.0210443223
0.0188198919
0.0166576166
0.0145982294
0.0126781418
0.010924697
0.00935148385
0.00796015402
0.0067426523
0.00568461783
0.00476797121
0.0039762034
0.00329272994
0.00270183904
0.00219245971
0.0017545163
0.00138159461
0.00106732281
0.000807418527
0.000598829361
0.000437655417
0.000317217936
0.000229281317
0.000165708632
0.000119903619
8.69166106e-05
6.31505563e-05
4.60514923e-05
3.37135222e-05
2.47378811e-05
1.81987403e-05
1.34894686e-05
1.00174408e-05
7.45603719e-06
5.56023236e-06
4.1508233e-06
3.09989384e-06
2.31512762e-06
1.728733e-06
1.29075855e-06
9.64414808e-07
7.21719305e-07
5.41007644e-07
4.06246531e-07
3.05582109e-07
2.30254305e-07
1.73785531e-07
1.31379791e-07
9.94801083e-08
7.54437164e-08
5.73035042e-08
4.35931484e-08
3.32219325e-08
2.53510695e-08
1.9376492e-08
1.48356485e-08
1.13806941e-08
8.74998804e-09
6.7444152e-09
5.2132438e-09
4.04268483e-09
3.1466928e-09
2.46009525e-09
1.93347528e-09
1.52932685e-09
1.21913082e-09
9.8115238e-10
7.98809599e-10
6.59501954e-10
5.53648035e-10
4.73988791e-10
4.14779221e-10
3.71640183e-10
3.41222602e-10
3.20975986e-10
3.09074959e-10
3.04061511e-10
3.0479377e-10
3.10453777e-10
3.20272313e-10
3.33936209e-10
3.51415659e-10
3.72384608e-10
3.96804782e-10
4.24211999e-10
4.55341557e-10
4.89731577e-10
5.26950639e-10
5.67369478e-10
6.10201113e-10
6.55719679e-10
7.03233328e-10
7.52845788e-10
8.04147859e-10
8.57020211e-10
9.11341828e-10
9.66241777e-10
1.02290331e-09
1.08213772e-09
1.14446173e-09
1.20992743e-09
1.27842478e-09
1.34986717e-09
1.42342321e-09
1.4984039e-09
1.57428829e-09
1.65079955e-09
1.72825129e-09
1.80746746e-09
1.88957908e-09
1.97578673e-09
2.06711728e-09
2.16421384e-09
2.26726744e-09
2.3761779e-09
2.49115866e-09
2.61634718e-09
2.73360031e-09
2.85472773e-09
2.97651412e-09
3.09714932e-09
3.21537642e-09
3.33028805e-09
3.44119797e-09
3.54760503e-09
3.64920444e-09
3.74591673e-09
3.83792075e-09
3.9256824e-09
4.00996825e-09
4.09182627e-09
4.17250798e-09
4.25331059e-09
4.33536189e-09
4.41911634e-09
4.50306358e-09
4.5869279e-09
4.66939699e-09
4.74892418e-09
4.82408702e-09
4.89379754e-09
4.95739092e-09
5.0146162e-09
5.06555651e-09
5.11050348e-09
5.14977989e-09
5.18345821e-09
5.2107908e-09
5.22891789e-09
1.96207354e-20
1.62762461e-20
1.14811673e-20
8.00549261e-21
5.60196816e-21
3.96483461e-21
2.82070826e-21
2.00562921e-21
1.53874049e-21
1.24027553e-21
1.00625917e-21
8.10373052e-22
6.45592601e-22
5.20951166e-22
3.78680041e-22
3.3764328e-22
3.49210542e-22
3.54077869e-22
3.0662247e-22
2.74431627e-22
2.55944561e-22
2.5862e-22
2.22974391e-22
1.96942357e-22
1.59176481e-22
1.88871732e-22
1.89318097e-22
1.88187103e-22
1.57331533e-22
1.74660991e-22
3.32440147e-21
2.23621635e-19
1.56975913e-17
1.1078886e-15
7.86841284e-14
5.63631857e-12
4.10147625e-10
3.06511688e-08
2.43418961e-06
0.000210389772
5.06103076e-21
6.84700796e-21
6.73164516e-21
5.87226505e-21
4.90918933e-21
4.00642524e-21
3.30104084e-21
2.66053655e-21
2.29815089e-21
1.84927756e-21
1.46281429e-21
1.22302734e-21
9.99620058e-22
7.56213279e-22
5.978091e-22
5.54401235e-22
5.00105963e-22
4.68714412e-22
4.38757639e-22
4.46020469e-22
4.13595811e-22
3.44225767e-22
2.37277368e-22
2.58242333e-22
2.22418471e-22
2.19481262e-22
1.8488049e-22
1.96029223e-22
1.86035955e-22
2.0012766e-22
6.76722634e-22
3.70238881e-20
2.58314731e-18
1.80915488e-16
1.266783e-14
8.85360317e-13
6.1674929e-11
4.2658644e-09
2.90597541e-07
1.87293765e-05
7.10646872e-22
2.09170202e-21
3.10512643e-21
3.24019204e-21
3.1330238e-21
3.01027846e-21
2.7187256e-21
2.45602051e-21
2.15583183e-21
1.89510155e-21
1.66531868e-21
1.36965549e-21
1.18035422e-21
1.06926614e-21
9.66840314e-22
7.74665929e-22
7.01430605e-22
7.08460522e-22
5.86384456e-22
5.29240431e-22
4.38421935e-22
4.26572472e-22
3.3162468e-22
2.64915534e-22
2.72516072e-22
2.66117267e-22
2.78171528e-22
2.35658793e-22
2.4103338e-22
2.31156655e-22
3.10168443e-22
6.75335678e-21
4.51844775e-19
3.0762893e-17
2.06714921e-15
1.36199357e-13
8.71155049e-12
5.33340338e-10
3.02335009e-08
1.49720572e-06
1.32935517e-22
4.51433293e-22
7.98979979e-22
1.19733006e-21
1.63753183e-21
1.9461018e-21
2.02213395e-21
1.95106362e-21
1.88091713e-21
1.72243624e-21
1.63797872e-21
1.46787787e-21
1.30668736e-21
1.13996657e-21
1.03521575e-21
8.82907309e-22
7.75614503e-22
7.10992746e-22
6.22837763e-22
5.72403001e-22
5.37727145e-22
4.92879673e-22
4.31186598e-22
3.79726597e-22
3.55458582e-22
3.41705703e-22
2.9615344e-22
2.59948699e-22
2.30628468e-22
2.1084127e-22
2.2361631e-22
1.33953436e-21
7.68094999e-20
4.98602954e-18
3.1559279e-16
1.9262099e-14
1.11655536e-12
6.0205777e-11
2.88342546e-09
1.14726454e-07
2.17818443e-22
7.67986358e-22
1.27337181e-21
1.82007574e-21
2.33936846e-21
2.4341637e-21
2.42281897e-21
2.21282475e-21
2.07979954e-21
1.85782597e-21
1.69920622e-21
1.4676258e-21
1.2704604e-21
1.12504974e-21
1.05171283e-21
9.37687277e-22
7.859008e-22
7.46099877e-22
6.87586663e-22
6.11547193e-22
5.4570497e-22
4.73713987e-22
4.34454865e-22
3.59496977e-22
3.29882985e-22
3.14912165e-22
3.02071347e-22
2.83291466e-22
2.55436272e-22
2.39847568e-22
2.4686297e-22
3.99503515e-22
1.25172938e-20
7.59892911e-19
4.48943672e-17
2.52511131e-15
1.32985455e-13
6.37148712e-12
2.63567842e-10
8.77216943e-09
1.102669e-21
3.48517683e-21
4.14386607e-21
4.18569843e-21
3.84555616e-21
3.45679004e-21
3.02575805e-21
2.59244268e-21
2.19442472e-21
1.90244896e-21
1.53682821e-21
1.32431765e-21
1.08758439e-21
9.90480024e-22
9.03793468e-22
8.22906536e-22
6.64234772e-22
5.48225953e-22
5.33265769e-22
4.85813895e-22
4.00812809e-22
3.68908355e-22
3.01672906e-22
2.62446169e-22
2.18669387e-22
2.17053285e-22
2.13918601e-22
2.1335373e-22
1.62357863e-22
1.4759687e-22
1.82941199e-22
1.71208538e-22
1.98475845e-21
1.06538334e-19
5.87427249e-18
3.0574901e-16
1.47376169e-14
6.36355484e-13
2.32921532e-11
6.71344119e-10
6.18078785e-21
8.1477842e-21
7.77432868e-21
6.75282934e-21
5.34946162e-21
4.21341759e-21
3.22444372e-21
2.4768085e-21
1.9420656e-21
1.5382786e-21
1.22534397e-21
9.18791612e-22
7.66785656e-22
6.86742384e-22
5.88660079e-22
5.15339073e-22
4.61828948e-22
4.86395539e-22
4.33255404e-22
3.12182733e-22
2.29661485e-22
2.39174566e-22
2.16189249e-22
1.90574828e-22
1.75384578e-22
2.01967903e-22
1.51063051e-22
1.57646356e-22
1.35971668e-22
1.37828608e-22
1.45983717e-22
1.38877669e-22
4.0966183e-22
1.55804558e-20
7.97436958e-19
3.84235531e-17
1.70580082e-15
6.71291365e-14
2.21772789e-12
5.61147413e-11
2.03878631e-20
1.65688752e-20
1.16042787e-20
8.07473095e-21
5.63643729e-21
3.77447291e-21
2.55636061e-21
1.82013429e-21
1.2762037e-21
1.01048781e-21
8.66544227e-22
6.42779926e-22
5.08015768e-22
4.64147525e-22
3.52696409e-22
3.06122823e-22
3.0587263e-22
2.80979724e-22
2.88399084e-22
2.89578049e-22
2.42758892e-22
2.13540555e-22
2.09587056e-22
2.11493111e-22
1.76932155e-22
1.49210813e-22
1.43056085e-22
1.60506714e-22
1.51063274e-22
1.23659559e-22
1.07374416e-22
1.19261895e-22
2.4238812e-22
5.89415435e-21
2.60066503e-19
1.08536458e-17
4.16319545e-16
1.41396695e-14
3.99429094e-13
8.23731712e-12
0.0203935513
0.038713983
0.0534820339
0.0653763328
0.0748612204
0.0817505232
0.0868110874
0.0907731832
0.0939795958
0.0966100134
0.0987651913
0.100529147
0.101970644
0.103141195
0.104093418
0.104865997
0.105495913
0.106003912
0.106417717
0.106757252
0.107029122
0.107237936
0.107388497
0.107486022
0.107536293
0.107548317
0.107529809
0.107488789
0.10742834
0.107348824
0.107249729
0.107130959
0.106991537
0.10683122
0.106651082
0.106453846
0.106242693
0.106019799
0.105786526
0.105543166
0.105289831
0.105026318
0.104752919
0.104470917
0.104181394
0.103886191
0.103586142
0.10328123
0.102970667
0.102653308
0.102327876
0.101992996
0.101647472
0.101290194
0.100920526
0.100537662
0.100140995
0.0997298995
0.0993037406
0.0988620568
0.0984042784
0.0979300443
0.0974386719
0.0969299114
0.0964028439
0.0958565414
0.0952899079
0.0947017723
0.0940905824
0.0934551662
0.0927938985
0.0921055673
0.0913888807
0.0906427196
0.0898659879
0.0890576852
0.0882164076
0.0873414926
0.0864323504
0.0854883819
0.0845093009
0.0834951004
0.0824460329
0.0813624733
0.0802449789
0.0790940647
0.0779105631