/*--------------------------------*- C++ -*----------------------------------*\
  =========                 |
  \\      /  F ield         | OpenFOAM: The Open Source CFD Toolbox
   \\    /   O peration     | Website:  https://openfoam.org
    \\  /    A nd           | Version:  6
     \\/     M anipulation  |
\*---------------------------------------------------------------------------*/
FoamFile
{
    version     2.0;
    format      ascii;
    class       volScalarField;
    location    "25000";
    object      CN;
}
// * * * * * * * * * * * * * * * * * * * * * * * * * * * * * * * * * * * * * //

dimensions      [0 0 0 0 0 0 0];

internalField   nonuniform List<scalar> 
44870
(
2.17899907e-117
3.92086062e-115
7.03294673e-113
1.27014051e-110
2.31169212e-108
4.24492415e-106
7.87471323e-104
1.47800432e-101
2.81129314e-99
5.42790051e-97
1.06563069e-94
2.13058998e-92
4.34530212e-90
9.05166144e-88
1.92857714e-85
4.20680358e-83
9.40526278e-81
2.15645249e-78
5.07496046e-76
1.22614972e-73
3.0432284e-71
7.7580543e-69
2.03224981e-66
5.46778841e-64
1.51130794e-61
4.28805253e-59
1.2488497e-56
3.72899952e-54
1.14105723e-51
3.57185039e-49
1.14249095e-46
3.7234793e-44
1.23332065e-41
4.12989957e-39
1.39017931e-36
4.65306002e-34
1.5257581e-31
4.76984045e-29
1.34931851e-26
3.14484906e-24
7.21220408e-118
1.21447647e-115
2.02672608e-113
3.3922591e-111
5.70684739e-109
9.67599159e-107
1.65755284e-104
2.87764193e-102
5.07603302e-100
9.12431204e-98
1.67555311e-95
3.15218554e-93
6.08982827e-91
1.21153684e-88
2.48796582e-86
5.28855949e-84
1.16672962e-81
2.67869719e-79
6.41847129e-77
1.60898541e-74
4.23055401e-72
1.1685214e-69
3.3957027e-67
1.03816078e-64
3.33908679e-62
1.12794867e-59
3.99642981e-57
1.48114619e-54
5.73126452e-52
2.30828119e-49
9.65651753e-47
4.18111922e-44
1.86855444e-41
8.57155698e-39
4.01414064e-36
1.89892351e-33
8.95182662e-31
4.11015213e-28
1.75215009e-25
6.53914098e-23
1.04044319e-118
1.54137816e-116
2.24218345e-114
3.26605545e-112
4.79060653e-110
7.114916e-108
1.07273507e-105
1.65111746e-103
2.59517595e-101
4.18729882e-99
6.93620888e-97
1.18565378e-94
2.08977434e-92
3.82210592e-90
7.23329924e-88
1.42892273e-85
2.93619762e-83
6.32884207e-81
1.42685906e-78
3.39252018e-76
8.48528955e-74
2.25374344e-71
6.35823391e-69
1.93906441e-66
6.49005232e-64
2.48699642e-61
1.12949248e-58
6.24497901e-56
4.08299714e-53
3.01992779e-50
2.39249897e-47
1.97466071e-44
1.64899153e-41
1.38318604e-38
1.14175725e-35
9.26928836e-33
7.22865814e-30
5.41481895e-27
3.69177818e-24
2.28038669e-21
6.31025898e-120
7.16314821e-118
8.2582572e-116
9.77912615e-114
1.19042138e-111
1.49088548e-109
1.91910169e-107
2.55311725e-105
3.50090009e-103
4.98363998e-101
7.3430423e-99
1.12915443e-96
1.80325309e-94
3.02385697e-92
5.27916556e-90
9.73492723e-88
1.87985013e-85
3.85628339e-83
8.39758879e-81
2.00855938e-78
5.68185958e-76
2.27105552e-73
1.42379736e-70
1.23051444e-67
1.22196329e-64
1.28314654e-61
1.37982944e-58
1.50662444e-55
1.65310151e-52
1.81968905e-49
1.98576033e-46
2.14739828e-43
2.27051932e-40
2.34945928e-37
2.34562793e-34
2.26231641e-31
2.07414439e-28
1.80523408e-25
1.44271449e-22
1.03801757e-19
6.38600167e-122
6.45969917e-120
6.71548547e-118
7.27170641e-116
8.2156075e-114
9.66433706e-112
1.18195486e-109
1.5073767e-107
1.99907586e-105
2.77064674e-103
4.0028992e-101
6.06663516e-99
9.63512849e-97
1.63943185e-94
3.19867136e-92
9.27485405e-90
5.15887572e-87
4.38889741e-84
4.24251621e-81
4.21311745e-78
4.2029906e-75
4.19157331e-72
4.17641035e-69
4.15666087e-66
4.13360035e-63
4.10774351e-60
4.07964609e-57
4.04957101e-54
4.01903925e-51
3.9868827e-48
3.95537706e-45
3.92285919e-42
3.89147208e-39
3.85981381e-36
3.82937949e-33
3.79908711e-30
3.77012658e-27
3.7419844e-24
3.71464493e-21
3.7115635e-18
2.58613846e-22
5.64184876e-22
7.91002914e-22
1.02792111e-21
2.52357911e-21
2.12123745e-20
6.50962297e-20
1.26659437e-19
1.89602561e-19
2.40467256e-19
2.72534519e-19
2.93147008e-19
3.12778985e-19
3.38401875e-19
3.68425641e-19
3.96565808e-19
4.16787579e-19
4.26004782e-19
4.34305183e-19
4.5867823e-19
5.16023014e-19
6.10787507e-19
7.3470292e-19
8.71514666e-19
1.0044857e-18
1.12737404e-18
1.25830808e-18
1.46868475e-18
1.84983046e-18
2.51466425e-18
3.5198895e-18
4.87388864e-18
6.53988036e-18
8.43140221e-18
1.05825169e-17
1.31594944e-17
1.67771649e-17
2.23337199e-17
3.10433855e-17
4.39193581e-17
6.16968273e-17
8.4542123e-17
1.12325855e-16
1.45101294e-16
1.84423737e-16
2.34317597e-16
3.0259179e-16
4.00361147e-16
5.40038524e-16
7.32531262e-16
9.84822349e-16
1.30000606e-15
1.68011904e-15
2.1339625e-15
2.68736334e-15
3.39492787e-15
4.34430913e-15
5.65107045e-15
7.44114853e-15
9.83067893e-15
1.29122343e-14
1.6756212e-14
2.14301967e-14
2.70166515e-14
3.36346318e-14
4.14228239e-14
5.05626603e-14
6.12757249e-14
7.39332867e-14
8.91505737e-14
1.07985238e-13
1.32029402e-13
1.6333979e-13
2.04288917e-13
2.56803473e-13
3.22428974e-13
4.01261563e-13
4.92799953e-13
5.96054123e-13
7.10772025e-13
8.38349856e-13
9.82884595e-13
1.15188202e-12
1.35578705e-12
1.60698701e-12
1.91757095e-12
2.29810235e-12
2.75468053e-12
3.2896196e-12
3.9024289e-12
4.59172898e-12
5.35937877e-12
6.21252429e-12
7.1669986e-12
8.24890897e-12
9.49506455e-12
1.09519268e-11
1.26741512e-11
1.47222046e-11
1.71615573e-11
2.00604153e-11
2.34889159e-11
2.75204432e-11
3.22370576e-11
3.77295637e-11
4.41113894e-11
5.15237006e-11
6.01360993e-11
7.01771094e-11
8.19309699e-11
9.57708988e-11
1.12173865e-10
1.31753643e-10
1.55330361e-10
1.83999908e-10
2.19243891e-10
2.63095983e-10
3.18381854e-10
3.89053579e-10
4.8062442e-10
6.00678868e-10
7.5931947e-10
9.69210865e-10
1.24473767e-09
1.60000695e-09
2.04622294e-09
2.58954236e-09
3.2300952e-09
3.96285885e-09
4.7803358e-09
5.67519346e-09
6.64215648e-09
7.68170982e-09
8.80112061e-09
1.00131774e-08
1.1340168e-08
1.28093565e-08
1.44572881e-08
1.63279763e-08
1.84325114e-08
2.09452174e-08
2.38059206e-08
2.65509552e-08
2.80077384e-08
2.68625152e-08
2.32429818e-08
1.85628148e-08
1.40575849e-08
1.02905024e-08
7.390075e-09
5.26864253e-09
3.75317375e-09
2.67888406e-09
1.91916543e-09
1.38117644e-09
9.99202642e-10
7.26689319e-10
5.30872044e-10
3.89330197e-10
2.86513858e-10
2.11515883e-10
1.56616595e-10
1.16313035e-10
8.66623781e-11
6.47827104e-11
4.85891348e-11
3.65700612e-11
2.76241577e-11
2.09459964e-11
1.59452092e-11
1.21882166e-11
9.35602148e-12
7.21354371e-12
5.58729008e-12
4.34823511e-12
3.40028238e-12
2.6728642e-12
2.1129596e-12
1.68067163e-12
1.3459352e-12
1.08600229e-12
8.83584341e-13
7.2548767e-13
6.01609709e-13
5.04186695e-13
4.27224682e-13
3.66083909e-13
3.17178774e-13
2.77743259e-13
2.45634026e-13
2.19164007e-13
1.97073644e-13
1.78351936e-13
1.62280656e-13
1.48277902e-13
1.35877611e-13
1.24738184e-13
1.14641568e-13
1.05442027e-13
9.69819164e-14
8.91380149e-14
8.18197767e-14
7.50151138e-14
6.86977432e-14
6.2811812e-14
5.73223046e-14
5.21919241e-14
4.74635812e-14
4.31073134e-14
3.90731333e-14
3.53374511e-14
3.18919788e-14
2.87507092e-14
2.58805617e-14
2.32590585e-14
2.08618318e-14
1.86856708e-14
1.67222693e-14
1.49373147e-14
1.33393367e-14
1.18932455e-14
1.05941202e-14
9.43225108e-15
8.39102615e-15
7.45897601e-15
6.62630692e-15
5.88392462e-15
5.22200717e-15
4.63062322e-15
4.10168712e-15
3.6287406e-15
3.20628242e-15
2.82958823e-15
2.49455044e-15
2.19738737e-15
1.93440541e-15
1.70176637e-15
1.49559406e-15
1.3153971e-15
1.15775287e-15
1.01957857e-15
8.98380865e-16
7.92016661e-16
6.98599749e-16
6.16469758e-16
5.44173531e-16
4.80447024e-16
4.24197333e-16
3.74486274e-16
3.30515369e-16
2.91611644e-16
2.57212459e-16
2.26846925e-16
2.00111988e-16
1.76636486e-16
1.55974336e-16
1.38236428e-16
1.22812829e-16
1.09415855e-16
9.77763802e-17
8.76456154e-17
7.88005299e-17
7.10456941e-17
6.42137426e-17
5.81659062e-17
5.27944394e-17
4.80314357e-17
4.38732862e-17
4.04458415e-17
3.8168855e-17
7.47269393e-21
1.20577921e-20
1.32277192e-20
1.62979718e-20
6.27504216e-20
7.02813768e-19
1.85350679e-18
3.04535805e-18
3.87033378e-18
4.2089914e-18
4.16642529e-18
4.16971724e-18
4.47111696e-18
5.035555e-18
5.62770627e-18
6.02334367e-18
6.12728612e-18
6.00967024e-18
6.13331261e-18
6.98467442e-18
8.74309496e-18
1.11344694e-17
1.36438072e-17
1.58222419e-17
1.73696984e-17
1.85329392e-17
2.02867471e-17
2.46519442e-17
3.35294306e-17
4.78909545e-17
6.69545276e-17
8.88557667e-17
1.11285569e-16
1.32755334e-16
1.54394527e-16
1.81772688e-16
2.25807324e-16
2.98472417e-16
4.08293921e-16
5.54821879e-16
7.30332198e-16
9.21305444e-16
1.11704438e-15
1.31627504e-15
1.53929895e-15
1.83015547e-15
2.25042963e-15
2.85715794e-15
3.6792087e-15
4.70531621e-15
5.89013782e-15
7.17887948e-15
8.54331028e-15
1.00251883e-14
1.17692057e-14
1.40261585e-14
1.71035034e-14
2.12830239e-14
2.67392057e-14
3.35103253e-14
4.15338791e-14
5.07368363e-14
6.11215668e-14
7.28036283e-14
8.59817243e-14
1.00853994e-13
1.17654861e-13
1.3669932e-13
1.58655053e-13
1.84772323e-13
2.17164447e-13
2.58745654e-13
3.12782888e-13
3.8228706e-13
4.68772309e-13
5.72483507e-13
6.91454452e-13
8.23337794e-13
9.66077418e-13
1.11988585e-12
1.28817924e-12
1.47869423e-12
1.70351485e-12
1.97747568e-12
2.3160499e-12
2.73222686e-12
3.23494126e-12
3.82655662e-12
4.50471785e-12
5.26523449e-12
6.10464736e-12
7.0254932e-12
8.03907233e-12
9.16793226e-12
1.04467771e-11
1.19217697e-11
1.36484031e-11
1.56892634e-11
1.81111509e-11
2.09846343e-11
2.43810369e-11
2.8372831e-11
3.30362012e-11
3.84575101e-11
4.47334183e-11
5.19879793e-11
6.03752861e-11
7.00823222e-11
8.13615928e-11
9.45265344e-11
1.09983688e-10
1.28251847e-10
1.50001564e-10
1.7611931e-10
2.07784187e-10
2.46583999e-10
2.94686785e-10
3.55086632e-10
4.31940383e-10
5.3099332e-10
6.60063687e-10
8.29434301e-10
1.05180618e-09
1.34135879e-09
1.71175432e-09
2.17362388e-09
2.73263712e-09
3.38848936e-09
4.13600753e-09
4.96773185e-09
5.87660067e-09
6.85756794e-09
7.91182091e-09
9.04727921e-09
1.02766358e-08
1.16226982e-08
1.31113879e-08
1.47777269e-08
1.66628244e-08
1.87975398e-08
2.13202476e-08
2.41371511e-08
2.67367773e-08
2.79334659e-08
2.65394978e-08
2.28212736e-08
1.81771305e-08
1.37611696e-08
1.00833179e-08
7.25328662e-09
5.18088715e-09
3.69727543e-09
2.64283788e-09
1.89572374e-09
1.36587558e-09
9.89159467e-10
7.19982071e-10
5.26331032e-10
3.86221142e-10
2.84365588e-10
2.10020545e-10
1.55569978e-10
1.1557803e-10
8.61434044e-11
6.44142115e-11
4.83264185e-11
3.63820537e-11
2.74891439e-11
2.08487095e-11
1.58748692e-11
1.21371861e-11
9.31887515e-12
7.18642138e-12
5.5674598e-12
4.33369749e-12
3.38955427e-12
2.664965e-12
2.10715104e-12
1.67640867e-12
1.34281702e-12
1.08373291e-12
8.81943234e-13
7.24309039e-13
6.00769207e-13
5.03592167e-13
4.26807236e-13
3.65790106e-13
3.16967545e-13
2.77586126e-13
2.45513024e-13
2.19061808e-13
1.96982337e-13
1.78260385e-13
1.62187334e-13
1.48184441e-13
1.35782126e-13
1.2463647e-13
1.14532047e-13
1.05331405e-13
9.68748598e-14
8.90334345e-14
8.1713108e-14
7.49058672e-14
6.85936971e-14
6.27168683e-14
5.72329876e-14
5.21027637e-14
4.73768421e-14
4.30287907e-14
3.90032461e-14
3.52725085e-14
3.18291804e-14
2.86921203e-14
2.58290576e-14
2.32140488e-14
2.08207468e-14
1.8647108e-14
1.66878281e-14
1.49059577e-14
1.33125033e-14
1.18689859e-14
1.05720552e-14
9.41266333e-15
8.37389308e-15
7.44383183e-15
6.61273123e-15
5.87172586e-15
5.2110813e-15
4.62081238e-15
4.09281961e-15
3.62071444e-15
3.19905377e-15
2.82312268e-15
2.48880428e-15
2.19231359e-15
1.92995739e-15
1.69789826e-15
1.49218711e-15
1.31248541e-15
1.15525049e-15
1.0174221e-15
8.9652088e-16
7.9041152e-16
6.97213011e-16
6.15269722e-16
5.43132998e-16
4.79542923e-16
4.23410279e-16
3.73800104e-16
3.29916668e-16
2.91089265e-16
2.56757069e-16
2.26450597e-16
1.99767909e-16
1.76338869e-16
1.55706493e-16
1.38018743e-16
1.22623243e-16
1.09251675e-16
9.76344171e-17
8.75226476e-17
7.86936398e-17
7.09523429e-17
6.41317599e-17
5.80934685e-17
5.27300528e-17
4.79738639e-17
4.38214483e-17
4.0398623e-17
3.81245574e-17
4.29779401e-19
4.89278102e-19
4.23131307e-19
6.31415192e-19
4.25471538e-18
5.48583215e-17
1.16757318e-16
1.54613315e-16
1.60333961e-16
1.44189482e-16
1.22765389e-16
1.23165259e-16
1.44594832e-16
1.69718231e-16
1.83342704e-16
1.80661943e-16
1.65367349e-16
1.48393831e-16
1.55251933e-16
1.97711056e-16
2.62892167e-16
3.26425266e-16
3.69108541e-16
3.84370544e-16
3.77422702e-16
3.67796185e-16
3.97532388e-16
5.18374378e-16
7.47626997e-16
1.05429673e-15
1.37671572e-15
1.65683153e-15
1.86169768e-15
2.00042433e-15
2.14108535e-15
2.42809384e-15
3.0346657e-15
4.05316059e-15
5.4322488e-15
6.98925881e-15
8.50735296e-15
9.81268208e-15
1.08700902e-14
1.18237294e-14
1.3051812e-14
1.50703126e-14
1.83171539e-14
2.29022585e-14
2.85242277e-14
3.45987179e-14
4.05134198e-14
4.59036018e-14
5.08708752e-14
5.61151372e-14
6.28831877e-14
7.26329075e-14
8.64750626e-14
1.04713547e-13
1.26755264e-13
1.51469729e-13
1.77773835e-13
2.05160607e-13
2.33824879e-13
2.64442638e-13
2.97631442e-13
3.33686224e-13
3.72876828e-13
4.1589945e-13
4.64847574e-13
5.23763623e-13
5.98747477e-13
6.96810846e-13
8.23791345e-13
9.82366751e-13
1.17011938e-12
1.38120415e-12
1.60687611e-12
1.84026378e-12
2.0784939e-12
2.32585786e-12
2.59419573e-12
2.90304756e-12
3.27715341e-12
3.74171063e-12
4.31730912e-12
5.01536463e-12
5.83647581e-12
6.77102579e-12
7.80386009e-12
8.92159474e-12
1.01186216e-11
1.14029767e-11
1.27990151e-11
1.43481897e-11
1.61074748e-11
1.81456962e-11
2.05389659e-11
2.33668896e-11
2.67090421e-11
3.06456018e-11
3.52527515e-11
4.06069247e-11
4.67901748e-11
5.38988226e-11
6.20440538e-11
7.13752595e-11
8.20777796e-11
9.43815778e-11
1.08594113e-10
1.25097791e-10
1.44376102e-10
1.67049967e-10
1.93914622e-10
2.26008951e-10
2.64703385e-10
3.11825494e-10
3.69844253e-10
4.42126576e-10
5.33275051e-10
6.49525944e-10
7.99171208e-10
9.9282446e-10
1.2431817e-09
1.5638877e-09
1.96760266e-09
2.46374009e-09
3.05701233e-09
3.7462104e-09
4.52584105e-09
5.38865516e-09
6.32816231e-09
7.33972152e-09
8.42618311e-09
9.59683973e-09
1.08637461e-08
1.22509719e-08
1.37805743e-08
1.54837037e-08
1.73921814e-08
1.95948681e-08
2.21246144e-08
2.48139081e-08
2.70609586e-08
2.76810826e-08
2.57826249e-08
2.18991632e-08
1.73540221e-08
1.31342173e-08
9.64798257e-09
6.96515827e-09
4.99541638e-09
3.57858593e-09
2.56586585e-09
1.8455212e-09
1.33304676e-09
9.67538392e-10
7.05508673e-10
5.16513774e-10
3.79489612e-10
2.7970863e-10
2.06775796e-10
1.53297137e-10
1.13981112e-10
8.50144248e-11
6.36119909e-11
4.77541834e-11
3.5972373e-11
2.71948261e-11
2.0636555e-11
1.57214237e-11
1.20258259e-11
9.23778626e-12
7.12719529e-12
5.52415075e-12
4.30194534e-12
3.36609781e-12
2.64769692e-12
2.09445101e-12
1.6670861e-12
1.33599626e-12
1.07876641e-12
8.78349223e-13
7.21726876e-13
5.98927789e-13
5.02287868e-13
4.25887507e-13
3.65140369e-13
3.16501784e-13
2.77240813e-13
2.45243533e-13
2.18840336e-13
1.96776152e-13
1.78060473e-13
1.61983527e-13
1.47973956e-13
1.3556383e-13
1.24410983e-13
1.14297674e-13
1.05091206e-13
9.66334637e-14
8.87956019e-14
8.14799912e-14
7.46744992e-14
6.83677473e-14
6.25017874e-14
5.70305831e-14
5.19103376e-14
4.71939829e-14
4.28574819e-14
3.88446308e-14
3.51270411e-14
3.16946416e-14
2.85677367e-14
2.57158467e-14
2.31122242e-14
2.07293895e-14
1.85641705e-14
1.66114267e-14
1.48404767e-14
1.32521508e-14
1.1815389e-14
1.0524153e-14
9.36988287e-15
8.33593524e-15
7.41018569e-15
6.58280918e-15
5.84496849e-15
5.18705089e-15
4.59918148e-15
4.07330638e-15
3.60310636e-15
3.18321276e-15
2.80895135e-15
2.47621033e-15
2.18119854e-15
1.92021636e-15
1.68942372e-15
1.48472925e-15
1.30610955e-15
1.1497689e-15
1.01269661e-15
8.92444219e-16
7.86892928e-16
6.94172941e-16
6.12638836e-16
5.40851741e-16
4.77560774e-16
4.21684783e-16
3.72295832e-16
3.28604174e-16
2.89944063e-16
2.55758655e-16
2.25581562e-16
1.99013311e-16
1.75686139e-16
1.55181035e-16
1.37542816e-16
1.22207043e-16
1.0889133e-16
9.73228575e-17
8.72527906e-17
7.84590707e-17
7.0747479e-17
6.39518489e-17
5.79345314e-17
5.25888025e-17
4.78475738e-17
4.37077405e-17
4.02950601e-17
3.80275584e-17
3.58939113e-17
2.70333764e-17
2.09988335e-17
4.66170536e-17
4.09570947e-16
5.27375275e-15
8.54880857e-15
8.71248394e-15
7.0631289e-15
5.04731299e-15
3.69128753e-15
4.21794086e-15
5.3465838e-15
5.86285214e-15
5.5007669e-15
4.58567783e-15
3.55245573e-15
2.89240213e-15
3.48346944e-15
5.03659036e-15
6.54781742e-15
7.29959014e-15
7.18198716e-15
6.46654549e-15
5.5814982e-15
5.09591268e-15
5.97715713e-15
8.86974048e-15
1.31372215e-14
1.73940616e-14
2.04669953e-14
2.19052789e-14
2.19544436e-14
2.14408739e-14
2.18447173e-14
2.52994289e-14
3.32462403e-14
4.49912612e-14
5.80207039e-14
6.94347273e-14
7.73654601e-14
8.14744668e-14
8.31264861e-14
8.5189076e-14
9.18292521e-14
1.06799609e-13
1.31029434e-13
1.61611064e-13
1.93219361e-13
2.20687059e-13
2.41134835e-13
2.55014189e-13
2.6621835e-13
2.81507038e-13
3.0875757e-13
3.53775123e-13
4.17279108e-13
4.9441594e-13
5.77210054e-13
6.58397622e-13
7.34450612e-13
8.06393897e-13
8.7804372e-13
9.53207869e-13
1.03327374e-12
1.11754245e-12
1.20576038e-12
1.30075171e-12
1.41122857e-12
1.55190738e-12
1.74102055e-12
1.99415531e-12
2.31715085e-12
2.7022743e-12
3.12836966e-12
3.56966112e-12
4.00230718e-12
4.4150051e-12
4.81249769e-12
5.21783362e-12
5.66967431e-12
6.21671991e-12
6.90889226e-12
7.78614435e-12
8.86800486e-12
1.01496111e-11
1.16037663e-11
1.31901054e-11
1.48687779e-11
1.66147462e-11
1.84275095e-11
2.03362115e-11
2.23985791e-11
2.46969893e-11
2.7331304e-11
3.04096888e-11
3.40404001e-11
3.83264548e-11
4.33625766e-11
4.92377908e-11
5.60298252e-11
6.38181089e-11
7.26931487e-11
8.27683953e-11
9.41829934e-11
1.07129022e-10
1.21850121e-10
1.38653922e-10
1.57939555e-10
1.80205029e-10
2.06070335e-10
2.36319323e-10
2.71950542e-10
3.14252741e-10
3.64904301e-10
4.26112143e-10
5.0081387e-10
5.92943811e-10
7.07760785e-10
8.52182796e-10
1.03510089e-09
1.26744917e-09
1.56169567e-09
1.93046851e-09
2.38487779e-09
2.93261385e-09
3.57725809e-09
4.31628947e-09
5.14382716e-09
6.05315067e-09
7.03868989e-09
8.09600616e-09
9.2309211e-09
1.04545828e-08
1.17766667e-08
1.32237801e-08
1.48090245e-08
1.65560899e-08
1.8546634e-08
2.08030967e-08
2.32751053e-08
2.56867444e-08
2.73131682e-08
2.70730952e-08
2.45474079e-08
2.05273833e-08
1.6173281e-08
1.22469246e-08
9.03870778e-09
6.55955138e-09
4.73274417e-09
3.4090532e-09
2.45476055e-09
1.77283637e-09
1.28531718e-09
9.35920267e-10
6.84255907e-10
5.02050851e-10
3.69546425e-10
2.72814971e-10
2.01964233e-10
1.49922147e-10
1.11605947e-10
8.33325263e-11
6.24154293e-11
4.68998777e-11
3.5360296e-11
2.67548004e-11
2.03191599e-11
1.54917143e-11
1.18590153e-11
9.11624743e-12
7.03837314e-12
5.45918345e-12
4.25405706e-12
3.33084633e-12
2.62174963e-12
2.07536079e-12
1.65306675e-12
1.32573375e-12
1.0712882e-12
8.72932404e-13
7.17831316e-13
5.96146348e-13
5.00312343e-13
4.24487569e-13
3.64146646e-13
3.15788168e-13
2.76709843e-13
2.44822865e-13
2.18488689e-13
1.96454367e-13
1.77752868e-13
1.61669962e-13
1.47644306e-13
1.35220995e-13
1.2406483e-13
1.13945848e-13
1.04727457e-13
9.62586499e-14
8.84256791e-14
8.11268203e-14
7.4331892e-14
6.80276689e-14
6.21684953e-14
5.67173767e-14
5.16217176e-14
4.69249932e-14
4.2599716e-14
3.8599388e-14
3.49038947e-14
3.14941027e-14
2.83841995e-14
2.55447494e-14
2.2955194e-14
2.05898897e-14
1.84404593e-14
1.64995023e-14
1.47412552e-14
1.31601622e-14
1.17339505e-14
1.0452209e-14
9.30550427e-15
8.27821458e-15
7.3588652e-15
6.53738839e-15
5.80451111e-15
5.15068195e-15
4.56638782e-15
4.04375771e-15
3.57650653e-15
3.15931486e-15
2.78757823e-15
2.45722133e-15
2.16444816e-15
1.90554192e-15
1.67665719e-15
1.47348867e-15
1.29651303e-15
1.14151164e-15
1.00557369e-15
8.8629695e-16
7.81585743e-16
6.89586563e-16
6.08669107e-16
5.37409108e-16
4.74569247e-16
4.19080487e-16
3.7002541e-16
3.26623222e-16
2.88215624e-16
2.54251752e-16
2.24269886e-16
1.97874277e-16
1.74702054e-16
1.54378416e-16
1.36820351e-16
1.21577782e-16
1.08346822e-16
9.68520508e-17
8.68449386e-17
7.81044783e-17
7.04377193e-17
6.36797707e-17
5.76941553e-17
5.23751648e-17
4.76565482e-17
4.35357345e-17
4.01383996e-17
3.78809358e-17
3.83932092e-15
1.48276303e-15
1.10944411e-15
3.556834e-15
3.30368538e-14
4.04353619e-13
4.6791174e-13
3.47411052e-13
2.09150911e-13
1.14034281e-13
7.82750937e-14
1.30236802e-13
1.64219357e-13
1.53042468e-13
1.1727162e-13
7.95043441e-14
5.1562088e-14
4.24394443e-14
7.17919021e-14
1.10025724e-13
1.28018964e-13
1.21752934e-13
1.01508141e-13
7.84847441e-14
6.08057713e-14
5.68204276e-14
8.14011274e-14
1.34386224e-13
1.90486858e-13
2.2620745e-13
2.34521252e-13
2.21645361e-13
1.99281022e-13
1.81204907e-13
1.8526975e-13
2.3186385e-13
3.21554804e-13
4.27045765e-13
5.13942302e-13
5.61349566e-13
5.6801297e-13
5.47126689e-13
5.20913228e-13
5.1706742e-13
5.64820985e-13
6.77735193e-13
8.37887891e-13
1.00399166e-12
1.13538674e-12
1.21071246e-12
1.23288208e-12
1.22479081e-12
1.22234954e-12
1.26676965e-12
1.39133872e-12
1.6034936e-12
1.87738905e-12
2.16678394e-12
2.42855634e-12
2.64113985e-12
2.8094593e-12
2.95605633e-12
3.10487368e-12
3.26725324e-12
3.43969719e-12
3.61250186e-12
3.78433732e-12
3.97174128e-12
4.21233856e-12
4.55727352e-12
5.05512946e-12
5.72837587e-12
6.5562293e-12
7.47670764e-12
8.4050098e-12
9.26714036e-12
1.00208599e-11
1.06707981e-11
1.12666334e-11
1.18949937e-11
1.26639201e-11
1.36834883e-11
1.50420662e-11
1.67837376e-11
1.8893631e-11
2.13049326e-11
2.39165742e-11
2.6624451e-11
2.93527551e-11
3.20762347e-11
3.48290906e-11
3.77015835e-11
4.0827108e-11
4.43674703e-11
4.84955215e-11
5.33779078e-11
5.91626198e-11
6.59749752e-11
7.39184721e-11
8.30770123e-11
9.35211358e-11
1.05328617e-10
1.18601483e-10
1.33482461e-10
1.50161096e-10
1.68898008e-10
1.90037848e-10
2.14013317e-10
2.4137037e-10
2.72782628e-10
3.0907458e-10
3.51274326e-10
4.0067849e-10
4.58939206e-10
5.28173356e-10
6.11114195e-10
7.11334203e-10
8.33508092e-10
9.83705481e-10
1.16960042e-09
1.40063277e-09
1.68782486e-09
2.04297157e-09
2.47702356e-09
2.99907199e-09
3.61476396e-09
4.32683969e-09
5.13090525e-09
6.02085886e-09
6.99092522e-09
8.03692623e-09
9.15359624e-09
1.03519665e-08
1.16450044e-08
1.30357298e-08
1.45562548e-08
1.61995428e-08
1.80463597e-08
2.01131497e-08
2.23573282e-08
2.46306574e-08
2.65078501e-08
2.71881452e-08
2.59096493e-08
2.28072713e-08
1.87757327e-08
1.472478e-08
1.11731588e-08
8.29425892e-09
6.07014621e-09
4.41307527e-09
3.20025069e-09
2.31616213e-09
1.6817414e-09
1.22518983e-09
8.95787457e-10
6.57125065e-10
4.83504777e-10
3.5674963e-10
2.63916449e-10
1.95738385e-10
1.45546957e-10
1.08518387e-10
8.11418671e-11
6.08545643e-11
4.57840003e-11
3.45599785e-11
2.61788857e-11
1.99033594e-11
1.51905147e-11
1.1640099e-11
8.95660923e-12
6.92160953e-12
5.37375353e-12
4.19094404e-12
3.2844134e-12
2.58754995e-12
2.05018394e-12
1.63456601e-12
1.31218081e-12
1.06140232e-12
8.6576182e-13
7.12666152e-13
5.92450793e-13
4.97678262e-13
4.22609871e-13
3.6280459e-13
3.14819085e-13
2.75984288e-13
2.44240596e-13
2.1798997e-13
1.9600528e-13
1.77328907e-13
1.61240281e-13
1.47189071e-13
1.34746709e-13
1.23593167e-13
1.13475446e-13
1.04240609e-13
9.57499508e-14
8.79218225e-14
8.06537078e-14
7.38811437e-14
6.75774189e-14
6.17186344e-14
5.62937176e-14
5.12390844e-14
4.65738473e-14
4.22593653e-14
3.82700326e-14
3.4604789e-14
3.12302144e-14
2.81448204e-14
2.53185404e-14
2.27447282e-14
2.04036578e-14
1.8277744e-14
1.63531375e-14
1.46070562e-14
1.30371806e-14
1.16255787e-14
1.03571287e-14
9.22027376e-15
8.20121896e-15
7.29020103e-15
6.47674978e-15
5.75060795e-15
5.10218032e-15
4.52260095e-15
4.00433801e-15
3.54109223e-15
3.12754925e-15
2.7591978e-15
2.43203224e-15
2.14225221e-15
1.88611163e-15
1.65976189e-15
1.45859082e-15
1.28383592e-15
1.13058936e-15
9.96144035e-16
8.78155337e-16
7.74554474e-16
6.8350857e-16
6.03407038e-16
5.32844808e-16
4.70602432e-16
4.15626817e-16
3.67014365e-16
3.23996047e-16
2.85923354e-16
2.52253309e-16
2.22530338e-16
1.96363579e-16
1.7339594e-16
1.53277919e-16
1.3585697e-16
1.20741714e-16
1.0762376e-16
9.62267963e-17
8.63031528e-17
7.76332958e-17
7.00259735e-17
6.33180078e-17
5.73744795e-17
5.20909997e-17
4.74024155e-17
4.33068686e-17
3.99299341e-17
3.76858514e-17
3.97984956e-13
8.04221596e-14
8.09013567e-14
2.79474853e-13
2.23733655e-12
2.37224358e-11
1.78778214e-11
9.06021841e-12
3.85157797e-12
1.57060384e-12
1.27720925e-12
3.14680926e-12
3.32300904e-12
2.42872637e-12
1.45936105e-12
7.88878778e-13
4.40924662e-13
4.47558453e-13
1.06648194e-12
1.49733456e-12
1.45713632e-12
1.14860561e-12
8.0453407e-13
5.40483679e-13
3.96132955e-13
4.24474007e-13
7.53697954e-13
1.26131969e-12
1.61237872e-12
1.67604196e-12
1.5231932e-12
1.28092331e-12
1.05461416e-12
9.29486236e-13
1.00882203e-12
1.388559e-12
1.96099891e-12
2.46452744e-12
2.71635259e-12
2.69579432e-12
2.49206271e-12
2.22913241e-12
2.03214972e-12
2.02368688e-12
2.30373987e-12
2.85298725e-12
3.49181833e-12
3.99997114e-12
4.24884471e-12
4.23822864e-12
4.06048171e-12
3.85126861e-12
3.75587344e-12
3.90303478e-12
4.35562896e-12
5.05602809e-12
5.84139257e-12
6.5346319e-12
7.03171005e-12
7.33181453e-12
7.51240738e-12
7.67212555e-12
7.87467696e-12
8.12261992e-12
8.3780692e-12
8.60687856e-12
8.81882426e-12
9.07917919e-12
9.49845238e-12
1.01974957e-11
1.12586785e-11
1.26714819e-11
1.43151861e-11
1.59973566e-11
1.75229271e-11
1.87691664e-11
1.97145816e-11
2.04388721e-11
2.10986062e-11
2.18946114e-11
2.30351005e-11
2.46982427e-11
2.69896205e-11
2.99110954e-11
3.33540634e-11
3.7135594e-11
4.10471763e-11
4.49158082e-11
4.86507883e-11
5.22646708e-11
5.58693551e-11
5.96535552e-11
6.38522785e-11
6.87187218e-11
7.44980687e-11
8.14046748e-11
8.96066738e-11
9.92318405e-11
1.10368673e-10
1.23077675e-10
1.37411919e-10
1.53442555e-10
1.71284566e-10
1.9111596e-10
2.1318286e-10
2.37824853e-10
2.65491637e-10
2.9674365e-10
3.32274693e-10
3.72926111e-10
4.1971207e-10
4.73886346e-10
5.37015957e-10
6.11076308e-10
6.98561539e-10
8.02639928e-10
9.27392168e-10
1.07805025e-09
1.26124323e-09
1.48506075e-09
1.75911259e-09
2.09416479e-09
2.50115277e-09
2.98938504e-09
3.56648655e-09
4.23669154e-09
5.00288908e-09
5.85861201e-09
6.7980147e-09
7.81634954e-09
8.91063669e-09
1.00732748e-08
1.1321679e-08
1.26690831e-08
1.41078811e-08
1.56785913e-08
1.73931317e-08
1.92994016e-08
2.13711271e-08
2.35109376e-08
2.54786865e-08
2.67594524e-08
2.66315794e-08
2.46996797e-08
2.13641718e-08
1.74486043e-08
1.36653238e-08
1.03953002e-08
7.75205263e-09
5.70608182e-09
4.17166774e-09
3.0406756e-09
2.2111646e-09
1.61246124e-09
1.17915113e-09
8.6480543e-10
6.36037822e-10
4.69010741e-10
3.46703471e-10
2.56904694e-10
1.90817943e-10
1.42079085e-10
1.06062966e-10
7.93957573e-11
5.96082278e-11
4.48915609e-11
3.39190337e-11
2.57170767e-11
1.95695426e-11
1.49484213e-11
1.14639437e-11
8.82801332e-12
6.82744691e-12
5.30486079e-12
4.13999757e-12
3.24687311e-12
2.55987692e-12
2.0297957e-12
1.6195712e-12
1.30118565e-12
1.05337305e-12
8.59928188e-13
7.08452676e-13
5.89425269e-13
4.95513818e-13
4.21060134e-13
3.61687101e-13
3.14000134e-13
2.75363806e-13
2.43742828e-13
2.17562847e-13
1.95615509e-13
1.76956305e-13
1.60868598e-13
1.46807054e-13
1.3435126e-13
1.23191789e-13
1.1307115e-13
1.03832013e-13
9.53366765e-14
8.75110479e-14
8.02568117e-14
7.34977699e-14
6.72055937e-14
6.13585782e-14
5.59511139e-14
5.09200741e-14
4.6277557e-14
4.19815143e-14
3.8008643e-14
3.43637075e-14
3.10112363e-14
2.79452525e-14
2.51357035e-14
2.2577633e-14
2.02531683e-14
1.81430169e-14
1.62319192e-14
1.44977599e-14
1.29384405e-14
1.15374638e-14
1.02787704e-14
9.15012003e-15
8.13840111e-15
7.23416871e-15
6.4268773e-15
5.70606906e-15
5.06217575e-15
4.48658362e-15
3.97192527e-15
3.51197227e-15
3.10147121e-15
2.73596341e-15
2.41146118e-15
2.12415514e-15
1.87028703e-15
1.64601741e-15
1.44643782e-15
1.27355501e-15
1.12171192e-15
9.88472745e-16
8.7152875e-16
7.68829357e-16
6.78557731e-16
5.99119338e-16
5.29124678e-16
4.6736868e-16
4.12811075e-16
3.64559413e-16
3.2185416e-16
2.84054692e-16
2.50624377e-16
2.21112592e-16
1.95132384e-16
1.72330933e-16
1.5236883e-16
1.35068538e-16
1.20059025e-16
1.07033484e-16
9.57161628e-17
8.58604142e-17
7.72480073e-17
6.96890862e-17
6.30218425e-17
5.71126218e-17
5.18581283e-17
4.71940965e-17
4.311922e-17
3.97589816e-17
3.75258576e-17
7.94057129e-17
9.5428589e-17
9.00671759e-17
7.95104001e-17
6.87025649e-17
5.89476986e-17
5.05034056e-17
4.33368851e-17
3.73113242e-17
3.22880274e-17
2.81204837e-17
2.46754478e-17
2.18291998e-17
1.94654208e-17
1.74929405e-17
1.5843816e-17
1.44607834e-17
1.32915543e-17
1.22976205e-17
1.14506957e-17
1.07257787e-17
1.01008937e-17
9.56008579e-18
9.09115697e-18
8.68287249e-18
8.32548122e-18
8.01176656e-18
7.73564659e-18
7.49224203e-18
7.27735245e-18
7.08725389e-18
6.91873184e-18
6.76975634e-18
6.63882794e-18
6.53782814e-18
7.15198319e-18
4.39551648e-17
1.89742948e-15
8.96231617e-14
3.53510649e-12
4.23204147e-17
6.40524743e-17
7.13239865e-17
7.164245e-17
6.86687424e-17
6.41929891e-17
5.89800323e-17
5.34850154e-17
4.80150042e-17
4.28374874e-17
3.8108384e-17
3.38810546e-17
3.01601476e-17
2.69204118e-17
2.4116893e-17
2.17005934e-17
1.96247136e-17
1.78401861e-17
1.63028595e-17
1.49774634e-17
1.38339754e-17
1.28437014e-17
1.19831029e-17
1.12340775e-17
1.05811339e-17
1.00096393e-17
9.50806735e-18
9.06683408e-18
8.6779284e-18
8.33477774e-18
8.0316672e-18
7.76320229e-18
7.52566919e-18
7.31613973e-18
7.13502804e-18
7.11860811e-18
1.40214981e-17
3.37008428e-16
1.32761234e-14
3.85891123e-13
2.21889483e-17
3.92316806e-17
4.92458343e-17
5.43079273e-17
5.61556594e-17
5.60065677e-17
5.45847904e-17
5.22890172e-17
4.93967493e-17
4.61575565e-17
4.27703507e-17
3.93755941e-17
3.60781674e-17
3.2956869e-17
3.00562075e-17
2.73950886e-17
2.49792703e-17
2.28057738e-17
2.08610921e-17
1.91273232e-17
1.75877816e-17
1.6224745e-17
1.50186619e-17
1.39517206e-17
1.30090761e-17
1.21765238e-17
1.14410048e-17
1.07903908e-17
1.02139868e-17
9.70296338e-18
9.25020984e-18
8.84881379e-18
8.4927677e-18
8.17705571e-18
7.89808907e-18
7.67129738e-18
8.34937942e-18
4.48079415e-17
1.30257749e-15
3.19496543e-14
1.74746354e-17
3.07527518e-17
3.99647266e-17
4.57230028e-17
4.88413134e-17
5.00562487e-17
4.99416134e-17
4.8896772e-17
4.71999422e-17
4.50558239e-17
4.26227606e-17
4.00229025e-17
3.73523598e-17
3.46905972e-17
3.20986178e-17
2.96185752e-17
2.7279457e-17
2.51009125e-17
2.30920036e-17
2.12536361e-17
1.95827641e-17
1.8072945e-17
1.67143503e-17
1.54957919e-17