/*--------------------------------*- C++ -*----------------------------------*\
  =========                 |
  \\      /  F ield         | OpenFOAM: The Open Source CFD Toolbox
   \\    /   O peration     | Website:  https://openfoam.org
    \\  /    A nd           | Version:  6
     \\/     M anipulation  |
\*---------------------------------------------------------------------------*/
FoamFile
{
    version     2.0;
    format      ascii;
    class       volScalarField;
    location    "25000";
    object      CO;
}
// * * * * * * * * * * * * * * * * * * * * * * * * * * * * * * * * * * * * * //

dimensions      [0 0 0 0 0 0 0];

internalField   nonuniform List<scalar> 
44870
(
8.67504343e-56
4.24071621e-55
4.78373899e-55
3.64105458e-55
4.13492153e-55
5.42881668e-55
8.1108888e-55
8.33476822e-55
8.31999487e-55
9.93970633e-55
1.07321312e-54
1.18748375e-54
1.24646679e-54
1.31516731e-54
1.31098957e-54
1.43401102e-54
1.3598503e-54
1.48197006e-54
1.33670428e-54
1.81312126e-54
1.98666461e-54
2.63064357e-53
4.12302939e-51
7.04497114e-49
1.2222567e-46
2.15113795e-44
3.83765968e-42
6.93715281e-40
1.26927682e-37
2.34949024e-35
4.39248326e-33
8.28647305e-31
1.57274997e-28
2.99680896e-26
5.69728924e-24
1.07408686e-21
1.97804888e-19
3.48850454e-17
5.54906676e-15
7.47536991e-13
1.1125448e-55
1.41094977e-55
3.96278215e-55
4.35123995e-55
5.85978935e-55
7.30700759e-55
6.98942363e-55
6.8458472e-55
6.23814072e-55
7.65417328e-55
1.17504017e-54
1.09732503e-54
1.30982177e-54
1.15668505e-54
1.14543273e-54
1.32177542e-54
1.2006107e-54
9.54645218e-55
1.18876436e-54
1.67097922e-54
1.90730823e-54
5.24701896e-53
9.43194933e-51
1.76357704e-48
3.33858747e-46
6.40263841e-44
1.24133376e-41
2.43664207e-39
4.83005981e-37
9.69242908e-35
1.9620932e-32
4.02112009e-30
8.30224204e-28
1.73543196e-25
3.64472824e-23
7.73113403e-21
1.63294828e-18
3.44293431e-16
6.78800969e-14
1.27387952e-11
4.43689276e-55
7.97398201e-55
1.11167726e-54
1.0012914e-54
9.40122453e-55
1.183879e-54
1.07808148e-54
1.06812013e-54
9.4078988e-55
8.60947373e-55
1.03882097e-54
1.48607956e-54
1.20151724e-54
1.36230749e-54
1.4375304e-54
1.26286721e-54
1.82678985e-54
1.69591175e-54
1.32457457e-54
1.530919e-54
3.54998696e-54
2.82375328e-52
5.79581469e-50
1.20609032e-47
2.52023966e-45
5.30596629e-43
1.12094687e-40
2.38819463e-38
5.10213376e-36
1.10097932e-33
2.38024078e-31
5.20761009e-29
1.13992493e-26
2.5322336e-24
5.62337256e-22
1.27098606e-19
2.86818781e-17
6.64059928e-15
1.47570627e-12
3.37004994e-10
2.86259984e-55
3.99529315e-55
7.18484351e-55
9.33188339e-55
5.04435445e-55
5.06472371e-55
6.0138446e-55
4.37258382e-55
9.23064863e-55
5.55127639e-55
1.02821708e-54
1.37761208e-54
8.07926356e-55
7.16688227e-55
1.40048419e-54
1.6274545e-54
2.20927858e-54
2.081725e-54
2.40246442e-54
1.97759436e-54
2.55241344e-53
5.21359215e-51
1.15171829e-48
2.54196641e-46
5.60154659e-44
1.23450276e-41
2.7189204e-39
5.99616912e-37
1.32228534e-34
2.92447928e-32
6.46947888e-30
1.43755177e-27
3.19494066e-25
7.14351518e-23
1.59739087e-20
3.59166145e-18
8.05445496e-16
1.80885089e-13
3.93108534e-11
8.30999893e-09
1.17001897e-54
9.30498343e-55
6.46312184e-55
6.60469754e-55
2.21876726e-55
5.70251174e-55
5.08973728e-55
9.04644451e-55
1.44520845e-54
1.94699204e-54
1.68663137e-54
1.23711669e-54
1.54542285e-54
1.88963103e-54
1.70165167e-54
1.42846338e-54
1.45001551e-54
1.13032856e-54
1.07571457e-54
3.16783739e-54
5.1057563e-52
1.13887986e-49
2.52776377e-47
5.58128236e-45
1.22676937e-42
2.68604439e-40
5.86159064e-38
1.27527744e-35
2.76789337e-33
5.99423211e-31
1.29587776e-28
2.79715927e-26
6.03048918e-24
1.29870774e-21
2.79464823e-19
6.00911177e-17
1.2914346e-14
2.77390101e-12
5.95546551e-10
1.28488377e-07
2.3871117e-11
1.00526469e-10
2.65152815e-10
5.8112674e-10
1.15336293e-09
2.15050241e-09
3.83814169e-09
6.63656777e-09
1.1169398e-08
1.83840854e-08
2.9585441e-08
4.66678356e-08
7.2083281e-08
1.09259451e-07
1.62564973e-07
2.37666543e-07
3.41968616e-07
4.84400156e-07
6.77095949e-07
9.33875446e-07
1.27324526e-06
1.7168918e-06
2.29201792e-06
3.03220242e-06
3.97808873e-06
5.18070375e-06
6.6961468e-06
8.60642415e-06
1.09871513e-05
1.39600107e-05
1.7643359e-05
2.21931832e-05
2.77944549e-05
3.46415066e-05
4.30025065e-05
5.31310838e-05
6.53883281e-05
8.01118952e-05
9.77611939e-05
0.000118795027
0.000143794217
0.00017338541
0.000208286318
0.000249233154
0.000297157643
0.000352867359
0.000417251932
0.000491233052
0.000575767535
0.000671862358
0.000780553872
0.000902927906
0.00104005938
0.00119303321
0.00136284513
0.00155041394
0.00175647266
0.0019815838
0.0022260861
0.00249012692
0.00277368178
0.00307656308
0.00339851355
0.00373916135
0.00409824397
0.0044754479
0.0048707272
0.00528400591
0.00571544369
0.00616498984
0.00663255201
0.00711772122
0.00761969414
0.00813769821
0.00867022664
0.00921679631
0.00977512581
0.0103447131
0.0109246246
0.0115142178
0.0121129162
0.0127202594
0.013335983
0.0139598219
0.0145915738
0.0152309225
0.0158777257
0.0165315584
0.0171920751
0.0178589522
0.0185317761
0.0192102153
0.019893861
0.0205823681
0.0212754802
0.0219730727
0.0226751674
0.0233819898
0.0240939581
0.0248118002
0.0255361572
0.0262680588
0.0270084772
0.027758527
0.0285193179
0.0292922259
0.0300788105
0.0308807271
0.0317002103
0.0325398239
0.0334028199
0.0342930873
0.0352153424
0.0361754992
0.0371807889
0.0382400057
0.0393637795
0.0405647478
0.0418574316
0.0432574181
0.044779263
0.0464321458
0.0482128127
0.0500973064
0.0520362704
0.0539602247
0.0557942021
0.0574741081
0.0589566387
0.0602200634
0.061259602
0.0620815563
0.0626980634
0.0631232687
0.0633710738
0.0634532246
0.0633786401
0.063151948
0.0627717332
0.0622304884
0.0614846323
0.0604796378
0.0591369592
0.0573756113
0.0551903316
0.0526810613
0.0499717111
0.0471558988
0.0442958442
0.0414354512
0.0386062533
0.0358313864
0.0331290752
0.0305144947
0.0280002678
0.0255965419
0.0233113864
0.0211515641
0.0191222015
0.0172264448
0.0154656734
0.0138395801
0.0123462693
0.0109823968
0.0097433483
0.00862344465
0.00761616476
0.00671436828
0.0059105137
0.00519686097
0.00456565018
0.00400925101
0.00352027886
0.00309171436
0.00271711406
0.0023905017
0.00210615342
0.00185895911
0.00164433926
0.00145819461
0.00129687825
0.0011571619
0.00103620209
0.000931509843
0.000840915182
0.000762523255
0.000694679859
0.000635955174
0.000585126217
0.000541134099
0.000503013486
0.000470055279
0.000441499241
0.00041682207
0.000395505151
0.000377061323
0.000361092768
0.000347302777
0.00033544893
0.00032523788
0.000316430145
0.000308824662
0.000302303972
0.000296712641
0.000291917117
0.000287788267
0.000284240541
0.000281223829
0.000278616048
0.000276352
0.000274354707
0.000272594219
0.000271032537
0.000269632857
0.000268365693
0.00026720074
0.00026611852
0.000265055558
0.000264092092
0.000263266988
0.000262495131
0.000261787378
0.000261139399
0.000260538251
0.000259968281
0.000259416343
0.000258871701
0.000258327041
0.000257783023
0.000257248179
0.000256734897
0.000256255237
0.000255817612
0.000255424244
0.000255070864
0.000254749285
0.000254452519
0.000254169663
0.000253850965
0.000253500104
0.00025311251
0.000252681017
0.000252200852
0.000251670621
0.000251091688
0.00025046727
0.000249801604
0.000249099207
0.00024836419
0.000247599607
0.000246806858
0.000245985227
0.000245131708
0.00024424138
0.000243308408
0.000242324896
0.000241300293
0.000240230696
0.000239123975
0.000237991652
0.000236846843
0.000235702484
0.000234569889
0.000233458085
0.000232374224
0.000231325353
0.000230322447
0.000229389007
0.000228579999
0.000228024108
4.92538532e-10
1.78755058e-09
4.12600015e-09
8.24766273e-09
1.53647351e-08
2.73918094e-08
4.72896388e-08
7.97541404e-08
1.3153446e-07
2.12517583e-07
3.35600973e-07
5.18661566e-07
7.83562341e-07
1.15957693e-06
1.682027e-06
2.39454315e-06
3.35130017e-06
4.61417647e-06
6.26244794e-06
8.38021599e-06
1.10733843e-05
1.44588729e-05
1.86699717e-05
2.38689747e-05
3.02156458e-05
3.79254928e-05
4.71946252e-05
5.82940501e-05
7.14579257e-05
8.70031004e-05
0.000105215063
0.000126428539
0.000150960356
0.00017914796
0.000211339592
0.000247871714
0.000289131709
0.00033546102
0.000387295958
0.000444995366
0.0005090292
0.000579763721
0.00065763968
0.000742928681
0.000836177886
0.00093762922
0.00104763284
0.00116656862
0.00129484993
0.00143293031
0.00158129171
0.00174045666
0.00191096602
0.00209339683
0.00228833916
0.00249641225
0.00271822203
0.0029543638
0.00320537066
0.0034717081
0.00375373425
0.00405171224
0.00436580103
0.00469609564
0.00504268071
0.00540556457
0.00578491259
0.00618083619
0.00659354954
0.00702310096
0.00746947724
0.00793240801
0.00841134132
0.00890568766
0.00941434718
0.00993692094
0.0104715627
0.0110178841
0.0115750873
0.0121426266
0.0127199169
0.0133065416
0.0139022378
0.0145067182
0.0151197432
0.0157410177
0.0163703459
0.0170073504
0.0176516713
0.0183030095
0.0189609402
0.0196250866
0.0202950722
0.0209705625
0.0216513136
0.0223372071
0.0230282707
0.0237247358
0.0244270209
0.0251358592
0.0258518662
0.0265760562
0.0273093916
0.0280529752
0.0288079054
0.0295755754
0.030357522
0.0311554181
0.0319715201
0.0328084272
0.0336693742
0.0345582776
0.0354799228
0.0364402219
0.0374463846
0.0385071489
0.0396330141
0.0408363602
0.0421312419
0.0435324555
0.0450533422
0.0467013925
0.0484713798
0.050337688
0.0522505515
0.0541418983
0.0559395575
0.0575824665
0.0590296465
0.0602606842
0.0612712524
0.0620675532
0.0626613087
0.0630661115
0.0632953294
0.0633600727
0.0632687605
0.0630253736
0.0626275986
0.0620639105
0.0612918588
0.0602562166
0.0588793642
0.0570865869
0.0548827561
0.0523699875
0.0496669706
0.0468629615
0.0440176143
0.0411734323
0.0383611729
0.0356035401
0.0329184519
0.0303209073
0.0278233798
0.0254358034
0.0231661188
0.0210210313
0.019005578
0.0171228292
0.0153741199
0.0137591192
0.0122759271
0.0109212129
0.00969039027
0.00857782097
0.00757703476
0.00668094947
0.00588208642
0.00517277062
0.00454530744
0.00399213023
0.00350591453
0.0030796939
0.00270708654
0.00238217021
0.00209924374
0.00185324355
0.00163962518
0.00145431883
0.00129370306
0.00115457105
0.00103409717
0.000929808335
0.000839549316
0.000761436919
0.00069382429
0.000635288118
0.000584614857
0.000540755141
0.000502736301
0.000469870376
0.000441380902
0.000416761365
0.000395496447
0.000377092428
0.000361149546
0.000347377342
0.000335544756
0.000325352816
0.000316557234
0.00030895461
0.00030243516
0.000296850114
0.000292058806
0.000287929883
0.000284377255
0.000281357687
0.000278748891
0.000276482267
0.00027448133
0.000272715921
0.000271151679
0.000269749426
0.00026847885
0.000267310178
0.000266224526
0.000265155521
0.000264188666
0.000263362789
0.000262585212
0.000261872277
0.000261219471
0.000260613649
0.000260039175
0.000259482932
0.000258934355
0.000258386224
0.000257839124
0.000257301434
0.000256785382
0.000256302815
0.00025586196
0.000255464959
0.00025510756
0.000254781661
0.00025448046
0.000254194628
0.000253870491
0.000253515135
0.000253123644
0.000252688581
0.000252205129
0.000251671907
0.000251090273
0.00025046342
0.000249795546
0.000249091128
0.000248354237
0.000247587894
0.000246793471
0.000245970238
0.00024511519
0.000244223426
0.000243289151
0.000242304262
0.000241279195
0.000240208919
0.000239101821
0.00023796936
0.000236824582
0.000235680363
0.00023454796
0.000233436354
0.000232352661
0.000231303911
0.000230301072
0.00022936765
0.000228558617
0.000228002587
1.85278153e-08
5.88945614e-08
1.22658156e-07
2.28333951e-07
4.00351957e-07
6.773676e-07
1.12002554e-06
1.81584822e-06
2.87690376e-06
4.44288569e-06
6.67161218e-06
9.74702751e-06
1.38655082e-05
1.92522372e-05
2.6143e-05
3.47971988e-05
4.5484321e-05
5.84738809e-05
7.40490057e-05
9.24769003e-05
0.000114040192
0.00013901102
0.000167667972
0.000200295362
0.000237156954
0.000278564118
0.00032473596
0.000375988083
0.000432440099
0.000494330565
0.000561783333
0.000634918503
0.000713799899
0.000798513318
0.000889111666
0.000985687091
0.00108834225
0.00119719124
0.00131239615
0.00143403183
0.00156223734
0.00169700785
0.00183843433
0.00198635587
0.00214107196
0.00230242527
0.00247043131
0.0026451352
0.00282660667
0.00301494626
0.0032102655
0.00341273381
0.0036225575
0.00384000839
0.00406542161
0.0042992073
0.00454183109
0.00479381012
0.0050556772
0.00532795597
0.00561113352
0.00590566868
0.00621194529
0.00653039001
0.0068613001
0.00720498148
0.00756185835
0.00793224628
0.00831647706
0.0087147728
0.00912728833
0.00955400815
0.00999476732
0.0104493212
0.0109171629
0.0113981101
0.0118910524
0.0123958191
0.0129119046
0.0134389222
0.013976454
0.0145241841
0.0150818673
0.0156492676
0.0162261501
0.0168122987
0.0174074701
0.0180114165
0.0186237873
0.0192442423
0.0198724181
0.0205079425
0.0211504592
0.0217996693
0.0224553731
0.0231174834
0.0237860603
0.0244613687
0.0251438429
0.0258342118
0.0265330846
0.0272414388
0.0279602261
0.0286905275
0.0294334315
0.0301903502
0.0309627862
0.0317524763
0.0325616884
0.0333931005
0.0342499439
0.0351362223
0.0360567789
0.0370175207
0.0380256053
0.039089605
0.0402196799
0.0414275766
0.0427262447
0.0441286595
0.0456454609
0.0472805103
0.0490245376
0.0508487873
0.0527031772
0.0545230069
0.0562420851
0.0578055482
0.0591770558
0.0603387944
0.0612872841
0.0620284758
0.0625731849
0.0629338183
0.0631226309
0.0631493297
0.0630212994
0.0627410555
0.0623044872
0.0616894859
0.0608587793
0.0597555193
0.0583046288
0.0564468372
0.0542074439
0.0516900026
0.0490022531
0.0462246553
0.04341178
0.0406030043
0.0378277367
0.0351077019
0.0324601585
0.029899751
0.0274385932
0.0250861718
0.0228501337
0.020737112
0.0187519107
0.016897447
0.0151749621
0.0135840758
0.0121228806
0.010788075
0.00957513514
0.00847851179
0.00749184536
0.00660818018
0.005820174
0.0051202931
0.0045009844
0.00395481953
0.00347460457
0.00305348708
0.00268521941
0.00236400129
0.00208417088
0.00184077328
0.00162933861
0.00144586048
0.00128677243
0.00114891485
0.00102950217
0.000926095358
0.00083656868
0.0007590641
0.000691955101
0.000633834895
0.00058350454
0.000539929358
0.000502160286
0.0004694659
0.000441132007
0.000416637555
0.000395475156
0.000377152511
0.000361275754
0.000347553666
0.000335760901
0.000325599352
0.00031682801
0.000309242999
0.000302732845
0.000297154285
0.000292365027
0.000288236051
0.000284680775
0.000281656745
0.000279040863
0.000276765306
0.000274757577
0.000272985276
0.000271415093
0.000270004981
0.000268725688
0.000267549587
0.000266458096
0.00026539635
0.000264421773
0.000263571373
0.000262782544
0.000262058883
0.000261395327
0.000260778901
0.00026019445
0.000259628879
0.0002590717
0.000258515788
0.000257961738
0.000257417713
0.000256895521
0.000256406524
0.000255958568
0.000255553628
0.000255187478
0.000254852176
0.000254541367
0.000254249132
0.000253912955
0.000253547856
0.000253147891
0.000252705027
0.000252214381
0.000251674605
0.00025108705
0.000250454854
0.000249782134
0.000249073279
0.000248332275
0.000247562067
0.000246763974
0.000245937231
0.000245078835
0.000244183929
0.000243246805
0.000242260572
0.000241232867
0.000240161025
0.000239053094
0.000237920318
0.000236775599
0.000235631677
0.000234499687
0.000233388508
0.000232305185
0.000231256703
0.000230254016
0.000229320637
0.000228511566
0.000227955358
7.44440315e-07
1.88170281e-06
3.50683432e-06
5.84189106e-06
9.2421879e-06
1.43817319e-05
2.21457161e-05
3.34409137e-05
4.90255513e-05
6.94896452e-05
9.52261996e-05
0.000126560035
0.000163722078
0.000206981342
0.000256491242
0.000312410831
0.000374687371
0.000443205782
0.000517819794
0.000598335967
0.000684659617
0.000776672418
0.000874402163
0.000977767119
0.00108682762
0.0012014935
0.00132169706
0.00144739725
0.00157821212
0.0017141854
0.00185521971
0.00200124926
0.00215223392
0.00230817678
0.00246908137
0.00263496492
0.00280581378
0.00298162431
0.00316234473
0.00334782919
0.00353793828
0.00373241628
0.0039310814
0.00413347923
0.00433972715
0.00454938655
0.00476228979
0.00497836061
0.0051976033
0.00542006387
0.00564583013
0.00587503926
0.00610785968
0.00634453918
0.00658538822
0.00683081669
0.00708130627
0.00733739802
0.00759964871
0.00786857394
0.00814467085
0.00842837574
0.00872011185
0.0090202825
0.00932927753
0.00964750374
0.00997543642
0.0103134993
0.0106621378
0.0110217409
0.0113926722
0.0117752098
0.0121695764
0.0125759065
0.012994204
0.0134245477
0.0138664971
0.014320094
0.0147851193
0.0152613397
0.0157486163
0.0162467522
0.0167555674
0.0172749661
0.0178047907
0.0183449578
0.0188952745
0.0194555363
0.0200254736
0.0206047704
0.0211931051
0.0217901478
0.0223955885
0.0230092004
0.0236308655
0.0242605633
0.0248984262
0.0255448057
0.0262001636
0.0268651587
0.0275404964
0.0282270997
0.0289259099
0.0296379797
0.0303644194
0.0311065895
0.0318660223
0.0326445578
0.0334444566
0.0342684864
0.035119958
0.0360029011
0.0369221952
0.0378837128
0.0388944577
0.0399626341
0.0410977459
0.0423103982
0.0436116565
0.0450115392
0.0465165694
0.0481254197
0.0498235512
0.0515787846
0.0533419326
0.0550539242
0.0566570814
0.0581047402
0.059366505
0.0604277601
0.061285999
0.0619467154
0.0624193523
0.0627145821
0.0628431463
0.0628125455
0.0626287891
0.0622920743
0.0617881065
0.0610953441
0.0601750971
0.0589687812
0.0574101366
0.0554657783
0.0531853784
0.0506684299
0.0480071231
0.0452707376
0.042507442
0.0397518887
0.0370321642
0.034368454
0.0317770689
0.0292722165
0.0268653668
0.0245653821
0.0223794747
0.0203142494
0.0183741055
0.0165617509
0.014878297
0.0133232955
0.0118948309
0.0105896486
0.00940331895
0.0083304269
0.00736477773
0.00649960414
0.00572776658
0.00504194101
0.00443478439
0.0038990735
0.00342780843
0.00301430316
0.00265255987
0.00233682287
0.00206161277
0.0018221047
0.00161393527
0.00143319187
0.00127638955
0.00114043967
0.00102261725
0.000920533045
0.000832103047
0.000755507462
0.000689154216
0.000631662134
0.000581847855
0.000538693358
0.000501284052
0.000468867165
0.000440772069
0.000416463053
0.000395443289
0.000377239709
0.000361472832
0.000347834743
0.000336094188
0.000325968064
0.000317231792
0.00030968468
0.000303193471
0.000297617269
0.000292824991
0.00028869581
0.000285144744
0.000282114409
0.000279483272
0.000277191601
0.000275174441
0.000273395681
0.000271815052
0.00027039142
0.000269098103
0.000267911345
0.000266811454
0.000265755218
0.000264770476
0.000263887621
0.000263081217
0.000262341743
0.000261661575
0.000261028904
0.000260429202
0.000259849525
0.000259279209
0.00025871119
0.000258146312
0.000257592477
0.00025706084
0.000256562021
0.000256103303
0.000255686402
0.000255307101
0.000254957676
0.00025463239
0.000254331069
0.00025397611
0.000253596574
0.000253183955
0.000252729365
0.000252227881
0.000251678222
0.000251081735
0.000250441474
0.000249761436
0.000249045877
0.000248298657
0.000247522611
0.000246718972
0.000245886932
0.000245023486
0.000244123846
0.000243182478
0.000242193991
0.000241162363
0.000240088268
0.00023897909
0.000237845833
0.000236701196
0.000235557712
0.000234426334
0.000233315794
0.000232233029
0.000231184953
0.000230182494
0.000229249184
0.00022844007
0.000227883691
2.88920105e-05
4.63465031e-05
6.56841214e-05
9.07507553e-05
0.000126981939
0.000183750395
0.000266163074
0.000372557032
0.000497526457
0.00063519952
0.000781028602
0.000933006486
0.00109053929
0.00125376467
0.00142218561
0.00159465126
0.00176973192
0.00194615438
0.00212336504
0.00230159827
0.00248174008
0.00266465571
0.00285097589
0.00304074816
0.00323383305
0.00342952804
0.00362777844
0.00382780352
0.00403001442
0.0042346931
0.0044420479
0.00465207973
0.00486466616
0.00507961301
0.00529664784
0.00551555067
0.00573616534
0.00595849149
0.0061824393
0.00640780676
0.00663426668
0.00686137433
0.00708872767
0.00731570158
0.00754238947
0.00776845141
0.00799401118
0.00821936145
0.00844483038
0.00867069568
0.00889716403
0.00912443306
0.00935270733
0.00958232294
0.00981370936
0.0100474649
0.0102842357
0.0105246717
0.0107693338
0.0110186198
0.0112728697
0.0115322853
0.0117971508
0.0120675949
0.0123440278
0.0126267848
0.0129162432
0.013212875
0.0135172431
0.0138298964
0.0141514605
0.0144825331
0.0148236983
0.015175425
0.0155380611
0.015911884
0.0162969105
0.0166932785
0.0171009436
0.0175198741
0.0179500956
0.0183916185
0.018844449
0.0193086544
0.0197842214
0.0202712354
0.0207695736
0.0212790738
0.021799538
0.0223307008
0.0228722902
0.0234240387
0.023985722
0.0245572264
0.0251385507
0.0257297849
0.0263311734
0.0269432538
0.0275663315
0.0282011213
0.0288484923
0.0295092635
0.0301843603
0.0308748093
0.0315817506
0.0323064601
0.0330505496
0.0338159555
0.0346049835
0.035420464
0.0362657448
0.0371448637
0.0380626512
0.0390248213
0.0400380124
0.0411097024
0.0422482577
0.043462434
0.044760449
0.046148128
0.0476267034
0.0491887759
0.0508145489
0.0524695586
0.0541078147
0.0556780852
0.0571327942
0.0584341561
0.0595580108
0.0604929326
0.0612371986
0.0617956477
0.0621758538
0.0623862654
0.0624359826
0.0623292204
0.0620707068
0.0616494268
0.0610517515
0.0602526563
0.0592100948
0.0578675655
0.0561777302
0.0541421381
0.0518282685
0.0493234401
0.0467024942
0.0440227805
0.0413253002
0.0386408809
0.0359943379
0.0334045731
0.0308868326
0.0284546866
0.0261185943
0.0238869785
0.0217666382
0.0197637199
0.0178822381
0.0161246759
0.0144919898
0.0129836529
0.0115977458
0.0103310796
0.00917935103
0.00813732156
0.00719901211
0.00635790031
0.00560710973
0.00493958812
0.00434826439
0.00382618108
0.00336659028
0.00296301544
0.0026098074
0.00230121587
0.00203204732
0.00179762759
0.00159373253
0.001416571
0.00126276358
0.00112931459
0.00101357915
0.000913232391
0.000826242147
0.000750838439
0.000685478377
0.000628816115
0.000579683155
0.000537077502
0.000500124547
0.000468089494
0.000440316279
0.000416250988
0.000395409251
0.000377358313
0.000361744255
0.000348224789
0.000336547065
0.000326460199
0.000317768226
0.000310279158
0.000303815781
0.000298236675
0.00029343682
0.000289307212
0.000285767581
0.000282726994
0.000280072168
0.000277758667
0.000275729628
0.000273944562
0.000272347204
0.000270904664
0.000269593048
0.000268392667
0.000267281451
0.000266217473
0.00026521773
0.000264306873
0.000263478589
0.000262718288
0.000262015517
0.000261361172
0.000260741109
0.000260142576
0.00025955451
0.000258969989
0.000258390333
0.000257823138
0.000257278672
0.000256766603
0.000256293516
0.000255860748
0.000255464063
0.000255095988
0.000254751371
0.000254439344
0.000254058033
0.000253659931
0.000253230761
0.00025276069
0.00025224486
0.000251682115
0.000251073792
0.000250422837
0.000249733088
0.000249008628
0.000248253152
0.000247469353
0.000246658354
0.000245819284
0.000244949146
0.000244043237
0.000243096236
0.000242103706
0.000241067814
0.000239990866
0.00023888006
0.000237746168
0.000236601634
0.000235458725
0.000234328151
0.000233218454
0.000232136428
0.00023108889
0.000230086736
0.000229153519
0.000228344358
0.000227787805
0.000679634498
0.000578025263
0.000599586967
0.000715347785
0.000930804596
0.00131319464
0.00177027424
0.00219768535
0.00255237664
0.00283577911
0.0030715065
0.00329126358
0.00351331809
0.00374164354
0.00397050326
0.00419179797
0.00440094853
0.00459862374
0.00479010199
0.00498215825
0.00517977547
0.0053839993
0.00559325321
0.00580470015
0.00601619559
0.00622630328
0.00643574685
0.00664563882
0.00685803186
0.00707372353
0.00729229363
0.00751255138
0.00773331663
0.00795371944
0.00817333735
0.00839230586
0.00861109504
0.00883018932
0.00904951768
0.0092684961
0.0094862638
0.00970195624
0.00991505465
0.0101251188
0.0103327191
0.0105382664
0.0107425821
0.0109463751
0.0111500651
0.0113537728
0.011557479
0.0117612505
0.0119653188
0.0121702329
0.0123766904
0.0125856014
0.0127977571
0.0130137752
0.0132340013
0.0134585116
0.0136873339
0.0139203851
0.0141577692
0.014399453
0.0146457399
0.0148969115
0.0151533502
0.0154155432
0.0156841874
0.0159599772
0.0162437903
0.0165364232
0.0168386417
0.0171510247
0.017473974
0.0178077817
0.0181525641
0.0185084153
0.0188753498
0.0192534813
0.0196429644
0.0200439755
0.0204566963
0.0208813346
0.0213180043
0.0217668653
0.0222278279
0.0227007612
0.0231854907
0.0236817816
0.0241894105
0.0247081739
0.0252379469
0.0257787087
0.0263305649
0.0268937245
0.0274685128
0.0280555796
0.0286550834
0.0292679599
0.0298949895
0.0305369843
0.0311948519
0.0318696009
0.032562358
0.0332743917
0.0340073339
0.0347631786
0.0355442772
0.0363534711
0.0371940605
0.0380700263
0.0389860538
0.0399475891
0.0409607836
0.0420322536
0.0431691831
0.0443785136
0.0456658978
0.0470336687
0.0484792836
0.0499915285
0.0515481732
0.0531147749
0.0546493172
0.0561066674
0.0574461269
0.0586353272
0.0596538784
0.0604921373
0.0611486309
0.0616276785
0.0619352176
0.0620779306
0.0620640617
0.0618945065
0.0615683062
0.0610740299
0.0603957098
0.0595054326
0.0583608952
0.0569123179
0.055133304
0.0530476377
0.050724105
0.0482384614
0.0456546878
0.043022693
0.0403794063
0.0377527528
0.0351655002
0.0326353858
0.0301768533
0.0278029846
0.0255234373
0.0233464296
0.0212784843
0.0193252243
0.0174904628
0.0157765124
0.0141842164
0.0127129941
0.0113609297
0.0101248914
0.00900067968
0.007983199
0.0070666429
0.0062446838
0.00551065414
0.00485771675
0.00427901591
0.00376780445
0.00331753496
0.0029218851
0.00257549499
0.00227263007
0.00200830031
0.00177795832
0.00157749103
0.00140320429
0.00125180263
0.00112036328
0.0010063048
0.000907355566
0.000821526809
0.000747085958
0.000682524783
0.000626526998
0.000577944172
0.000535788705
0.000499205252
0.000467472471
0.000439951287
0.000416088761
0.000395404072
0.000377477309
0.000361970894
0.000348538982
0.000336922763
0.000326880905
0.000318223177
0.000310763907
0.00030431797
0.000298746131
0.000293948319
0.000289816309
0.000286275037
0.000283224327
0.000280555244
0.000278228022
0.000276187101
0.00027439108
0.000272780211
0.000271324318
0.00026999952
0.000268786418
0.00026766262
0.000266588365
0.000265576765
0.000264648296
0.000263802363
0.00026302429
0.000262303453
0.000261631802
0.000260995306
0.000260381043
0.00025977823
0.000259180319
0.000258588666
0.000258010443
0.000257455272
0.000256932192
0.000256447229
0.00025600141
0.000255590492
0.000255207192
0.000254846505
0.000254527437
0.000254122663
0.000253710188
0.000253267728
0.000252785095
0.000252257599
0.000251684209
0.000251066258
0.000250406598
0.000249708937
0.000248977221
0.00024821501
0.000247424884
0.000246607881
0.000245763082
0.000244887494
0.000243976487
0.000243024905
0.000242028772
0.000240989681
0.000239910496
0.000238798391
0.000237663988
0.000236519534
0.000235377085
0.000234247156
0.00023313813
0.000232056688
0.000231009572
0.000230007652
0.0002290745
0.000228265293
0.000227708605
0.00329858718
0.00268501592
0.00222075605
0.00185828386
0.00157040559
0.00134083255
0.00115808675
0.00101249495
0.000896684594
0.000803504757
0.000727625463
0.000665505031
0.000614256881
0.000571388385
0.000535163449
0.000504396582
0.000478105328
0.000455428124
0.000435761745
0.000418662192
0.000403720852
0.000390587518
0.000379013024
0.000368799261
0.000359753095
0.000351709604
0.000344547019
0.000338158929
0.000332458729
0.00032736786
0.000322815441
0.000318740584
0.00031510671
0.000311880923
0.000309044631
0.0003066075
0.000304616076
0.000303409282
0.000308848728
0.000507713939
0.00340973055
0.00287535898
0.00245730075
0.00212162965
0.00184627039
0.00161683876
0.00142463941
0.00126337977
0.00112833587
0.00101479018
0.000918686432
0.000837128003
0.000767859845
0.000708699293
0.000657838047
0.000613944852
0.000575978908
0.000542968802
0.000514123983
0.000488852673
0.000466662865
0.000447094175
0.0004297783
0.000414433308
0.000400813317
0.000388683826
0.000377861091
0.000368190547
0.000359540244
0.000351799214
0.00034486896
0.000338654526
0.000333092907
0.000328132969
0.000323737671
0.000319897692
0.000316656816
0.000314090749
0.000313260726
0.000338060739
0.00351637812
0.00303515536
0.00264452575
0.00232515861
0.00205968831
0.00183505567
0.00164241118
0.00147619084
0.00133253045
0.00120809703
0.00109993495
0.00100567214
0.000923460878
0.000851662848
0.000788755553
0.000733465421
0.000684780463
0.000641851429
0.000603894344
0.000570237645
0.000540360941
0.000513810014
0.000490154482
0.000469032747
0.000450161639
0.000433285388
0.000418176314
0.000404626748
0.000392454023
0.000381509272
0.000371675541
0.000362837862
0.000354895034
0.000347762169
0.000341373998
0.000335673945
0.000330638891
0.000326217978
0.000322481078
0.000321473717
0.00354895619
0.00309975754
0.00272531513
0.00241405273
0.00215300083
0.0019313934
0.00174092535
0.00157563395
0.0014311976
0.00130443487
0.00119279957
0.00109418689
0.00100692821
0.000929666904
0.00086118022
0.000800351389
0.000746249034
0.000698103266
0.00065521152
0.000616940044
0.000582761108
0.00055221852
0.000524894134
0.000500420212
0.000478478776
0.000458801787
0.000441146417
0.0004252892
0.000411029355
0.000398192816
0.000386632925
0.000376219009
0.000366831451
0.000358368376
0.000350727775
0.000343810841
0.000337493985
0.00033169671
0.000326227808
0.00032096036
0.00354348977
0.00308521283
0.00270291874
0.00238679242
0.00212323164
0.00190063838
0.00171000106
0.00154489554
0.00140074908
0.00127438299
0.00116330705
0.00106534752
0.000978787887
0.000902306752
0.000834760308
0.000775001103
0.000722028896
0.000675048172
0.000633339876
0.000596250207
0.000563267537
0.000533905128
0.000507715259
0.000484348685
0.000463474121
0.000444817662
0.000428142737
0.000413220074
0.000399836074
0.000387824719
0.000377038638
0.000367332193
0.00035859264
0.000350728733
0.000343626923
0.000337163764
0.000331196283
0.000325632576
0.000320249658
0.000314553742
0.0034969176
0.0029973986
0.00259196449
0.00226370187
0.00199273475
0.00176497523
0.00157082363
0.00140410209
0.00126039721
0.00113659951
0.00102986742
0.000937490419
0.000857293079
0.000787781623
0.000727565066
0.000675180733
0.000629442214
0.000589501452
0.000554530815
0.000523829267
0.000496872346
0.000473138374
0.00045218125
0.000433666482
0.000417276662
0.000402757372
0.000389878948
0.000378425786
0.000368216254
0.000359118157
0.000350992119
0.000343717899
0.000337208438
0.000331373681
0.000326114072
0.000321327383
0.00031691735
0.000312811633
0.000308756539
0.000303163889
0.00338761243
0.00283926784
0.00240960204
0.00206423788
0.00177912102
0.0015414993
0.00134380261
0.00117921382
0.00104228029
0.0009289488
0.000834802163
0.000755969117
0.000689850998
0.000634470222
0.000587745275