/*--------------------------------*- C++ -*----------------------------------*\
  =========                 |
  \\      /  F ield         | OpenFOAM: The Open Source CFD Toolbox
   \\    /   O peration     | Website:  https://openfoam.org
    \\  /    A nd           | Version:  6
     \\/     M anipulation  |
\*---------------------------------------------------------------------------*/
FoamFile
{
    version     2.0;
    format      ascii;
    class       volScalarField;
    location    "25000";
    object      CO2;
}
// * * * * * * * * * * * * * * * * * * * * * * * * * * * * * * * * * * * * * //

dimensions      [0 0 0 0 0 0 0];

internalField   nonuniform List<scalar> 
44870
(
2.41375638e-56
4.94289427e-56
7.60628244e-56
8.55941385e-56
7.77807886e-56
1.03594585e-55
1.18270058e-55
1.34422276e-55
1.34568321e-55
1.53350266e-55
1.3158848e-55
1.46049487e-55
1.65663828e-55
1.96895848e-55
2.11164866e-55
2.20998987e-55
2.46482592e-55
2.40427651e-55
2.50572507e-55
3.02515303e-55
9.50847522e-54
1.53547167e-51
2.58465846e-49
4.41863988e-47
7.66586139e-45
1.34912473e-42
2.40676195e-40
4.35038841e-38
7.95940921e-36
1.47323724e-33
2.75410837e-31
5.19528468e-29
9.85973856e-27
1.87854829e-24
3.57104516e-22
6.73181835e-20
1.23964886e-17
2.18613324e-15
3.47726169e-13
4.68423009e-11
3.34141633e-56
2.49660749e-56
4.79033558e-56
5.92027398e-56
8.27927666e-56
8.8888204e-56
9.11096165e-56
1.11741265e-55
1.18972874e-55
1.50493625e-55
1.65787337e-55
1.5898198e-55
1.9007105e-55
1.97665913e-55
2.00917043e-55
1.99768547e-55
2.28503267e-55
2.43025698e-55
2.70794774e-55
3.48468346e-55
1.78821708e-53
3.20811555e-51
5.91520578e-49
1.10612328e-46
2.09391729e-44
4.01550721e-42
7.78488397e-40
1.52803963e-37
3.02881085e-35
6.07751236e-33
1.23022232e-30
2.52103431e-28
5.20466092e-26
1.08783222e-23
2.28446353e-21
4.84541203e-19
1.0233725e-16
2.15760993e-14
4.25380392e-12
7.9829785e-10
5.02695188e-56
5.55760226e-56
1.22442795e-55
1.14688699e-55
1.21290431e-55
1.34572258e-55
1.24435474e-55
1.56403706e-55
1.64249455e-55
1.98131802e-55
1.77165976e-55
2.0555927e-55
1.89882575e-55
1.87281013e-55
2.14545861e-55
1.72823228e-55
2.49474406e-55
2.98980704e-55
2.06729458e-55
6.10315559e-55
8.5807559e-53
1.75899652e-50
3.635069e-48
7.56455723e-46
1.58063529e-43
3.32765127e-41
7.02974049e-39
1.49762155e-36
3.19933375e-34
6.90333998e-32
1.49234959e-29
3.2647904e-27
7.14592991e-25
1.58724911e-22
3.52457287e-20
7.96570942e-18
1.79751954e-15
4.16165792e-13
9.24831446e-11
2.11208721e-08
3.13692641e-56
6.23031121e-56
8.49008665e-56
1.27176491e-55
9.61409035e-56
9.96559537e-56
1.31466799e-55
1.00114732e-55
1.43368216e-55
1.97367198e-55
1.84423863e-55
2.72970694e-55
1.19795807e-55
9.80183597e-56
1.69473063e-55
2.29047974e-55
2.4990812e-55
2.2120845e-55
2.97407447e-55
6.81109986e-54
1.47551101e-51
3.26863075e-49
7.22357325e-47
1.59427446e-44
3.51305885e-42
7.74196533e-40
1.70504103e-37
3.76000533e-35
8.29111959e-33
1.83361085e-30
4.05598253e-28
9.01190867e-26
2.00273001e-23
4.47747897e-21
1.00116691e-18
2.25098658e-16
5.04785799e-14
1.13365282e-11
2.46381521e-09
5.20863347e-07
6.4668112e-56
3.82080159e-56
9.42003316e-56
1.50638784e-55
1.3056454e-55
1.49616175e-55
1.00344108e-55
1.30067471e-55
4.38195342e-56
1.39448827e-55
1.78571858e-55
1.48802289e-55
1.94911231e-55
2.58223016e-55
2.65697457e-55
2.92212557e-55
2.57846925e-55
3.1845496e-55
1.04423202e-54
1.42698951e-52
3.19911646e-50
7.1430495e-48
1.58537684e-45
3.50037744e-43
7.69353909e-41
1.68444289e-38
3.67566476e-36
7.99649213e-34
1.73546524e-31
3.75810931e-29
8.12395332e-27
1.75342669e-24
3.77999703e-22
8.13986769e-20
1.75151526e-17
3.76607546e-15
8.09388421e-13
1.73858883e-10
3.7330079e-08
8.05493094e-06
1.49531019e-09
6.24757843e-09
1.6282576e-08
3.50024495e-08
6.74515173e-08
1.20542959e-07
2.03214326e-07
3.27038296e-07
5.05848737e-07
7.57641731e-07
1.10280451e-06
1.56820115e-06
2.18299506e-06
2.98560778e-06
4.01881011e-06
5.33359062e-06
6.99228576e-06
9.06149956e-06
1.16317773e-05
1.47919594e-05
1.86626249e-05
2.33709321e-05
2.90717709e-05
3.59466481e-05
4.42047601e-05
5.41000332e-05
6.58822137e-05
7.99370183e-05
9.65684923e-05
0.000116317512
0.000139624819
0.000167094312
0.000199404528
0.00023719322
0.000281393834
0.000332742445
0.000392393969
0.000461245332
0.000540622838
0.000631685167
0.000735954785
0.000854951474
0.000990361396
0.00114397921
0.00131736204
0.00151219624
0.00173000659
0.00197227149
0.00224044797
0.00253602542
0.00286046503
0.00321526057
0.00360176537
0.00402126268
0.00447471067
0.00496281565
0.00548579675
0.0060434956
0.00663530741
0.00726032273
0.00791741267
0.00860527556
0.00932265431
0.0100682262
0.0108410673
0.0116402647
0.0124655448
0.0133165984
0.0141936064
0.0150963114
0.0160243984
0.0169769566
0.0179524013
0.0189492853
0.0199648356
0.0209973726
0.0220453691
0.0231065626
0.0241794343
0.0252629867
0.0263563352
0.0274587844
0.0285699561
0.0296894152
0.0308167716
0.0319513571
0.0330927377
0.0342399133
0.0353919729
0.0365480087
0.0377069326
0.0388677867
0.0400294674
0.0411909608
0.0423513619
0.0435099194
0.0446660253
0.0458192769
0.0469694313
0.0481164848
0.0492606218
0.050401812
0.0515400443
0.0526753345
0.0538074964
0.054936529
0.0560624376
0.0571850369
0.0583045578
0.0594211626
0.0605353159
0.0616475319
0.0627584223
0.0638689181
0.0649801264
0.066093333
0.0672100137
0.0683318039
0.0694603909
0.0705972512
0.071743113
0.0728970056
0.0740548524
0.0752080477
0.076343118
0.0774435077
0.0784938854
0.0794845929
0.0804137635
0.081286996
0.082114996
0.0829108364
0.0836880175
0.0844593795
0.0852366397
0.0860305479
0.0868514399
0.0877099551
0.0886183045
0.0895918281
0.0906547679
0.0918401821
0.0931926524
0.0947562555
0.0965363658
0.0984787263
0.100507197
0.102558759
0.104588699
0.106565629
0.108464962
0.110266752
0.111953584
0.113510219
0.114923051
0.116180068
0.117271049
0.118187821
0.118924508
0.119477633
0.119846207
0.120031707
0.120037981
0.119871047
0.119538844
0.119050917
0.118418081
0.117652066
0.116765179
0.115769968
0.114678903
0.113504015
0.112256343
0.110945632
0.109589876
0.108194362
0.106766299
0.105314484
0.103846085
0.102367483
0.100884285
0.0994013718
0.0979229415
0.0964526211
0.0949935706
0.093548436
0.0921192462
0.0907075513
0.0893148887
0.0879426647
0.086591552
0.0852608999
0.0839509426
0.0826634893
0.08139937
0.0801570133
0.0789335068
0.0777318584
0.0765560551
0.0754064576
0.0742806935
0.0731733471
0.0720900459
0.071032741
0.0700006334
0.0689920601
0.0679994187
0.0670353402
0.0661004324
0.0651904487
0.0643021917
0.0634343687
0.062595799
0.0617829625
0.0609953156
0.0602272093
0.059481664
0.0587625221
0.058062231
0.0573756983
0.0567010809
0.0560392314
0.0553915902
0.054757229
0.0541371276
0.0535326258
0.0529457445
0.0523768501
0.0518236191
0.0512825017
0.050749593
0.0502209035
0.0496928315
0.0491628173
0.0486296541
0.048093323
0.047554454
0.0470144546
0.0464747168
0.0459403506
0.0454113318
0.0448901491
0.0443789632
0.043879532
0.0433932046
0.0429208946
0.0424630275
0.0420194522
0.0415893274
0.041171004
0.0407619358
0.0403586869
0.0399571381
0.0395530061
0.039142652
0.0387230269
0.0382973818
0.0378690662
0.0374406692
0.0370184879
0.0366082971
0.0362149492
0.035841991
0.035491603
0.0351648608
0.0348623112
0.0345850403
0.0343367766
0.034128506
0.0339891435
3.08582184e-08
1.10851899e-07
2.5166631e-07
4.89300726e-07
8.73497708e-07
1.46483662e-06
2.33232277e-06
3.56321666e-06
5.25523288e-06
7.53454651e-06
1.05345249e-05
1.44298645e-05
1.93968485e-05
2.56656266e-05
3.34759435e-05
4.31006685e-05
5.48592364e-05
6.90700322e-05
8.61478336e-05
0.00010645457
0.000130463117
0.000158634588
0.000191462313
0.000229549837
0.000273368056
0.000323658343
0.000380912196
0.000445903679
0.000519242592
0.000601724181
0.000693895997
0.000796443139
0.000909849426
0.00103461314
0.00117117751
0.00131988252
0.00148119236
0.00165535567
0.00184291664
0.00204410086
0.00225948015
0.00248923692
0.00273379378
0.00299343639
0.00326807021
0.00355803351
0.00386359467
0.0041851659
0.0045233
0.00487868849
0.00525211878
0.00564448853
0.00605674075
0.00648989425
0.00694498082
0.00742306928
0.00792515896
0.00845217909
0.00900487387
0.00958380121
0.0101892625
0.0108213547
0.0114799714
0.0121649088
0.0128759831
0.0136128963
0.0143756985
0.0151643455
0.0159790023
0.0168195047
0.0176855839
0.0185764909
0.0194909927
0.0204278309
0.0213848344
0.022360432
0.0233533177
0.0243614994
0.0253835385
0.0264184799
0.0274653082
0.0285233064
0.0295920025
0.0306708259
0.0317592249
0.032856476
0.0339619633
0.0350746958
0.036193677
0.037317996
0.0384465116
0.0395781624
0.0407118783
0.0418466371
0.0429815224
0.0441157532
0.0452486844
0.0463798691
0.0475090189
0.0486360987
0.0497612147
0.0508842602
0.052005176
0.0531239328
0.0542403037
0.0553542892
0.0564658327
0.0575747396
0.0586812267
0.059785454
0.0608878085
0.0619887852
0.0630890292
0.0641894195
0.0652910091
0.0663950352
0.0675029082
0.0686161703
0.069736375
0.0708648046
0.0720019188
0.0731464078
0.0742938436
0.0754353988
0.0765577165
0.0776448006
0.0786822147
0.0796611964
0.0805805645
0.08144615
0.0822686171
0.0830608164
0.0838359638
0.0846066386
0.0853843611
0.0861797757
0.0870031894
0.0878653332
0.0887786649
0.0897591722
0.0908312588
0.0920282727
0.0933939883
0.0949691168
0.0967536194
0.0986912111
0.100708388
0.102744841
0.104757678
0.106716398
0.108597019
0.110379923
0.112047915
0.113586001
0.114980766
0.116220374
0.117294765
0.118195918
0.11891808
0.119457873
0.119814373
0.119989098
0.119985905
0.119810798
0.119471674
0.118978018
0.11834057
0.117570974
0.116681441
0.115684421
0.114592289
0.113416981
0.112169425
0.110858981
0.109504504
0.108110434
0.106683906
0.105233826
0.103767333
0.102290756
0.100809664
0.0993289062
0.0978526494
0.0963844986
0.094927613
0.0934846352
0.0920575551
0.0906478829
0.0892571994
0.0878869884
0.0865378685
0.085209093
0.0839007703
0.0826150839
0.0813529833
0.0801124726
0.0788903364
0.0776897779
0.0765155873
0.0753678427
0.074243437
0.0731368867
0.0720542267
0.0709983952
0.0699679599
0.0689602739
0.0679677968
0.0670043103
0.0660709107
0.0651621001
0.0642741976
0.0634064395
0.0625683845
0.0617566922
0.0609698891
0.0602020527
0.0594566186
0.0587379943
0.0580383004
0.0573525214
0.0566784644
0.0560171583
0.0553702667
0.0547366731
0.0541171562
0.0535131011
0.0529265959
0.0523580014
0.0518049277
0.0512638215
0.0507308554
0.0502021203
0.0496740585
0.0491441333
0.0486111595
0.0480751247
0.0475366053
0.046996984
0.046457783
0.045924028
0.045395598
0.0448749702
0.0443643077
0.0438653535
0.0433794468
0.0429074954
0.0424499235
0.0420065812
0.0415766319
0.0411584349
0.0407494565
0.0403462785
0.0399448044
0.0395407783
0.0391305811
0.0387110409
0.0382860453
0.0378580825
0.0374301772
0.0370085347
0.0365988924
0.0362060745
0.035833608
0.0354836612
0.0351573038
0.0348550822
0.0345780848
0.0343300427
0.0341219396
0.0339827016
1.16099901e-06
3.63933468e-06
7.39298512e-06
1.3190688e-05
2.16897308e-05
3.35044063e-05
4.92748525e-05
6.97145635e-05
9.55157532e-05
0.000127450604
0.000166196736
0.000212498165
0.000266948511
0.000330219913
0.000402837538
0.000485350213
0.000578220666
0.000681783952
0.000796373789
0.000922135697
0.00105924282
0.00120774092
0.00136765052
0.00153896785
0.00172156401
0.00191550109
0.0021204133
0.00233608421
0.00256234156
0.00279869231
0.0030445166
0.0032992134
0.00356209983
0.00383267116
0.00411041451
0.00439509523
0.00468656614
0.00498485444
0.00529012822
0.005602413
0.00592191075
0.00624854392
0.00658254378
0.00692406392
0.00727296598
0.00762962751
0.00799433699
0.00836746469
0.00874943021
0.00914070762
0.0095417782
0.00995325175
0.0103758158
0.0108102903
0.0112576127
0.0117188367
0.0121950724
0.0126874584
0.0131970845
0.0137249446
0.0142719013
0.0148387208
0.0154259977
0.0160344073
0.0166643604
0.0173162926
0.0179908588
0.0186884919
0.0194096314
0.0201544828
0.0209230905
0.0217151457
0.0225300439
0.0233670152
0.0242248172
0.0251023222
0.0259987026
0.0269125621
0.0278428281
0.0287886872
0.029749294
0.0307239757
0.031712145
0.0327131641
0.033726324
0.0347508792
0.0357859831
0.0368307524
0.0378841177
0.0389450364
0.0400124297
0.0410852118
0.0421623108
0.0432427158
0.044325517
0.045409899
0.046495168
0.0475808123
0.0486664786
0.0497520845
0.0508375627
0.0519226962
0.0530073469
0.0540914005
0.0551745719
0.0562568431
0.057338051
0.0584180201
0.0594968883
0.0605748193
0.0616520848
0.0627291851
0.0638067319
0.064885512
0.0659664869
0.0670507812
0.0681396537
0.0692344339
0.070336371
0.0714463134
0.0725641358
0.0736878181
0.0748122422
0.0759282222
0.077022787
0.0780812382
0.0790910492
0.080045297
0.0809441059
0.0817937869
0.0826048311
0.0833896154
0.0841607584
0.0849303013
0.0857093667
0.0865083919
0.0873376563
0.0882081322
0.0891327748
0.0901292045
0.0912217983
0.0924443653
0.0938384637
0.0954366893
0.0972277391
0.0991529638
0.101144399
0.103147376
0.10512265
0.107041576
0.108881355
0.11062309
0.112250033
0.113747746
0.115103215
0.116304977
0.11734333
0.118210568
0.118901211
0.119412082
0.119742405
0.119893779
0.119870082
0.119677279
0.119323181
0.11881714
0.118169733
0.117392413
0.116497188
0.115496295
0.114401899
0.113225731
0.111978479
0.110668599
0.109317
0.107926121
0.106502987
0.105056738
0.103594439
0.102122309
0.100645839
0.0991698098
0.0976983315
0.0962349581
0.0947828176
0.093344536
0.0919220822
0.0905169306
0.0891306495
0.0877647538
0.0864198088
0.0850952848
0.0837909328
0.0825091167
0.0812509058
0.0800141656
0.078795631
0.0775982467
0.0764271444
0.0752823021
0.0741607367
0.0730571547
0.0719768471
0.0709232619
0.0698951042
0.0688895208
0.0678990205
0.066937509
0.0660061264
0.06509873
0.0642121539
0.0633458506
0.0625090891
0.0616988054
0.0609131506
0.060146446
0.0594020311
0.0586851692
0.0579859005
0.0573011116
0.0566285939
0.0559688211
0.0553234073
0.0546912165
0.0540729528
0.0534700463
0.052884461
0.0523164807
0.0517637252
0.0512226945
0.050689669
0.0501608624
0.049632827
0.0491031039
0.0485705583
0.0480351848
0.0474974428
0.046958598
0.0464206223
0.0458882027
0.0453610524
0.044841638
0.0443321204
0.0438342106
0.0433492253
0.0428780604
0.0424211363
0.0419783062
0.0415487439
0.0411308264
0.0407220478
0.0403190282
0.0399177216
0.0395139325
0.0391041114
0.0386841934
0.0382612456
0.0378339792
0.0374071439
0.0369866825
0.036578242
0.0361865846
0.0358151944
0.0354662134
0.0351406992
0.0348391963
0.0345627974
0.03431524
0.0341075055
0.0339685242
4.66575644e-05
0.000115592655
0.000206781148
0.000321673206
0.000459801109
0.000620734357
0.000803496394
0.00100711497
0.00123010207
0.001471049
0.00172815219
0.00199977264
0.00228383964
0.00257885665
0.00288289741
0.00319471231
0.00351249107
0.00383483819
0.00416060687
0.00448866148
0.00481834868
0.00514890423
0.00548019112
0.00581171893
0.00614376461
0.00647610991
0.00680875539
0.00714144714
0.00747442246
0.00780735553
0.00814018894
0.00847294046
0.00880586897
0.00913942558
0.00947416658
0.00981070131
0.0101495046
0.010491058
0.0108355959
0.0111831884
0.0115338957
0.0118876896
0.0122447427
0.0126052082
0.0129689072
0.0133360552
0.013706759
0.0140812036
0.0144596595
0.0148424421
0.0152299715
0.0156228083
0.0160216068
0.0164271751
0.0168403891
0.0172622248
0.0176936871
0.0181358
0.0185895621
0.0190558758
0.0195356387
0.0200296604
0.0205387716
0.0210637839
0.0216054965
0.0221647368
0.0227424267
0.0233393533
0.02395627
0.0245937389
0.0252521616
0.0259316805
0.0266322569
0.0273536448
0.0280953857
0.0288569177
0.0296379765
0.0304378171
0.0312558554
0.0320915159
0.0329443843
0.0338138839
0.0346993818
0.0356002961
0.0365158531
0.0374453539
0.038387892
0.0393425566
0.0403083604
0.041284273
0.0422692767
0.0432623376
0.0442624206
0.0452685636
0.0462798888
0.0472955588
0.0483148449
0.0493371882
0.0503621855
0.0513896681
0.0524193648
0.0534509746
0.0544842744
0.0555190469
0.0565549911
0.0575919573
0.0586297495
0.0596682342
0.0607074054
0.0617474085
0.0627884878
0.0638310428
0.0648756187
0.0659228967
0.0669736984
0.0680289658
0.0690897086
0.0701569082
0.0712313265
0.0723131412
0.0734013672
0.0744930174
0.0755821582
0.0766593949
0.0777126549
0.0787293153
0.0796995581
0.080618896
0.0814890201
0.082316783
0.0831123331
0.0838873237
0.0846535545
0.0854223352
0.0862042684
0.0870095731
0.0878485596
0.088732616
0.0896762195
0.0906976142
0.0918221418
0.093083387
0.0945177661
0.0961443199
0.0979376387
0.0998391429
0.101789325
0.103740881
0.105659289
0.107518388
0.10929695
0.110977109
0.112542724
0.113980218
0.115277161
0.116422617
0.117407413
0.118224308
0.118868203
0.119336221
0.119627792
0.119744629
0.119690632
0.119471709
0.119095533
0.118571262
0.117909223
0.117120591
0.116217068
0.115210578
0.114112969
0.112935676
0.111689041
0.110379926
0.109036093
0.107646857
0.106228968
0.104788578
0.103332653
0.10186727
0.100397799
0.09892893
0.097464694
0.0960085631
0.0945635905
0.0931323823
0.0917169358
0.0903187032
0.0889391176
0.0875796523
0.0862411173
0.0849229964
0.0836249329
0.0823489655
0.081096044
0.0798648493
0.0786523911
0.077460478
0.0762935664
0.0751517441
0.0740345932
0.0729366673
0.0718608891
0.0708096558
0.0697833962
0.0687813998
0.067795365
0.0668376682
0.065907975
0.0650014909
0.0641175944
0.0632546715
0.0624202048
0.0616108184
0.0608261744
0.0600617606
0.0593197325
0.0586032405
0.0579051877
0.0572225907
0.0565526532
0.0558955391
0.0552522542
0.0546218459
0.0540054389
0.0534044484
0.0528203877
0.0522533399
0.0517010609
0.0511602221
0.0506272046
0.0500983465
0.0495703705
0.0490409698
0.0485090936
0.0479747371
0.047438192
0.0469004114
0.0463644294
0.0458339864
0.0453087455
0.0447911541
0.0442833601
0.0437870245
0.0433034293
0.042833452
0.0423775075
0.0419354543
0.0415064811
0.0410889921
0.0406805225
0.0402777506
0.0398767057
0.0394732844
0.0390640967
0.0386461822
0.0382235261
0.0377974761
0.0373722657
0.0369535872
0.0365469591
0.0361570509
0.0357872825
0.0354397579
0.0351155161
0.0348150975
0.0345396012
0.0342927752
0.0340855987
0.0339469923
0.00181165897
0.00281386347
0.00370459773
0.00452259274
0.00529429231
0.00602217492
0.0067049792
0.00734204432
0.0079350315
0.00848755008
0.0090041045
0.00948810968
0.00994218527
0.0103703752
0.0107759517
0.0111619647
0.0115321226
0.0118894994
0.0122363727
0.0125743536
0.0129051337
0.0132300482
0.0135503179
0.0138668324
0.0141806307
0.0144914705
0.014799584
0.0151048342
0.0154069227
0.0157060198
0.0160025643
0.0162970772
0.0165905031
0.0168839581
0.0171783482
0.0174742701
0.0177719181
0.0180714895
0.0183728841
0.0186760771
0.0189810811
0.0192880655
0.0195972912
0.019908863
0.020222409
0.0205377852
0.0208548106
0.0211734984
0.0214940602
0.0218168925
0.0221425546
0.0224717767
0.0228053073
0.0231439812
0.0234885347
0.0238397621
0.024198392
0.0245651721
0.0249408315
0.0253260056
0.0257214343
0.0261277277
0.0265457191
0.0269759489
0.0274194721
0.0278771595
0.0283498748
0.0288385487
0.029344109
0.0298672607
0.030408642
0.0309686882
0.0315477414
0.0321459721
0.0327634798
0.0334002693
0.0340566232
0.0347323578
0.0354273352
0.0361413932
0.0368743574
0.0376258698
0.0383954069
0.0391824278
0.0399861892
0.0408061211
0.0416413489
0.0424910144
0.0433542791
0.0442302406
0.0451179932
0.0460165978
0.0469251023
0.0478426191
0.0487683076
0.0497013275
0.0506409249
0.0515865566
0.0525376998
0.0534941155
0.0544553656
0.0554211005
0.0563910036
0.0573647645
0.05834209
0.0593226552
0.0603062869
0.0612928576
0.0622822697
0.0632746017
0.0642700381
0.065268883
0.0662715665
0.0672786215
0.0682906689
0.0693083798
0.0703323932
0.0713631825
0.0724008256
0.0734446103
0.0744925056
0.0755404965
0.076582021
0.0776079718
0.0786079181
0.0795720328
0.0804936866
0.0813710035
0.0822071849
0.0830094404
0.0837874194
0.0845518219
0.0853135048
0.0860829633
0.0868702431
0.0876854588
0.088539035
0.0894437085
0.0904146227
0.0914712695
0.0926396041
0.0939509847
0.0954318057
0.0970824803
0.0988658315
0.100728084
0.102619838
0.104501893
0.106344702
0.108124864
0.109823033
0.111422572
0.112907984
0.114266957
0.115487707
0.116559999
0.117475297
0.118226973
0.118810391
0.119223041
0.119464606
0.119536936
0.119443948
0.119191462
0.118786971
0.118239372
0.117558671
0.116755675
0.115841691
0.114828235
0.113726752
0.112548288
0.111302785
0.109994454
0.108658651
0.107274617
0.105863728
0.104431218
0.102983834
0.101527468
0.100067332
0.0986079997
0.097153417
0.0957069465
0.0942715128
0.0928496842
0.0914435569
0.0900546083
0.088683997
0.0873330143
0.086002754
0.0846933184
0.0834039849
0.0821359132
0.0808894977
0.0796654067
0.0784615716
0.0772776092
0.0761159728
0.0749770124
0.0738656962
0.0727763053
0.0717074097
0.0706585516
0.0696334268
0.0686365225
0.0676576183
0.0667057383
0.0657771993
0.0648709829
0.0639912492
0.0631337117
0.0623026105
0.0614933526
0.060709494
0.0599486312
0.0592104187
0.0584955204
0.0577978468
0.0571173019
0.0564510557
0.0557976607
0.0551570344
0.0545286589
0.0539146922
0.0533163821
0.0527344351
0.0521686208
0.0516169982
0.051076524
0.0505436468
0.0500148162
0.0494869853
0.0489580778
0.0484271526
0.0478941935
0.0473593017
0.0468227182
0.0462897394
0.0457617971
0.0452390469
0.0447238614
0.0442183485
0.0437240981
0.0432423459
0.042773945
0.0423193038
0.0418782874
0.0414501047
0.0410331955
0.0406251495
0.0402227216
0.0398220405
0.0394191229
0.0390107537
0.0385946203
0.038173117
0.0377488262
0.0373257878
0.0369094735
0.0365052453
0.0361176523
0.0357500306
0.0354044344
0.0350818789
0.0347828974
0.0345085975
0.0342627409
0.0340563064
0.0339181899
0.0429546432
0.0337800921
0.029059095
0.0263456167
0.024621054
0.0234403206
0.0226103413
0.0220333589
0.0216453209
0.0213959038
0.0212487896
0.021163601
0.021116856
0.0210994882
0.0211074312
0.0211382091
0.0211924436
0.0212684859
0.0213599173
0.0214605515
0.0215686125
0.0216834937
0.0218058968
0.0219367935
0.0220772326
0.0222259298
0.0223807798
0.0225396185
0.022701237
0.0228655829
0.0230330806
0.0232044978
0.0233813491
0.0235649812
0.0237558233
0.0239533084
0.0241563184
0.0243640583
0.0245759055
0.0247917298
0.0250117254
0.0252362557
0.0254656013
0.025699404
0.0259366575
0.0261765623
0.0264185349
0.0266624725
0.0269087382
0.0271579932
0.0274110712
0.0276689038
0.0279322656
0.028201867
0.0284780958
0.0287614524
0.0290523273
0.0293512271
0.0296586934
0.0299752159
0.0303014441
0.0306378421
0.0309851451
0.0313437317
0.0317145239
0.0320983189
0.0324959504
0.0329082324
0.033336076
0.0337800902
0.0342409682
0.0347191567
0.0352151193
0.0357292096
0.0362617876
0.0368132197
0.0373841066
0.0379745268
0.0385845829
0.0392143725
0.0398638284
0.0405326818
0.0412204877
0.0419267494
0.0426508152
0.0433922017
0.0441501293
0.0449238784
0.0457127471
0.0465159605
0.047332725
0.048162182
0.0490034639
0.0498557119
0.0507181108
0.0515898552
0.0524701504
0.0533584233
0.0542543044
0.0551572165
0.0560668045
0.0569826705
0.0579044454
0.0588317749
0.0597643486
0.060701807
0.061643935
0.0625905921
0.0635416483
0.0644971245
0.0654571412
0.0664219214
0.0673917854
0.068367125
0.0693483716
0.0703359417
0.0713301324
0.0723309689
0.0733379631
0.0743497302
0.0753635571
0.0763749191
0.0773772126
0.0783620348
0.0793205622
0.0802451044
0.0811311594
0.0819784023
0.0827908156
0.0835756489
0.0843420928
0.0851001446
0.0858600303
0.0866317442
0.0874249981
0.0882499863
0.0891177258
0.0900413298
0.0910367442
0.0921240651
0.0933285115
0.094677198
0.0961856726
0.097841721
0.0996055972
0.101429457
0.103270721
0.105095177
0.10687625
0.108592505
0.110225909
0.111760739
0.113182136
0.114478492
0.115638586
0.11665276
0.117512988
0.118213069
0.118748727
0.119117729
0.119319942
0.119357306
0.119233744
0.118954996
0.118528405
0.117962656
0.117267497
0.116453444
0.11553149
0.114512828
0.113408582
0.112229497
0.110985258
0.109677247
0.108348267
0.106969018
0.105563929
0.104137956
0.102697625
0.101248686
0.0997962273
0.0983447222
0.0968980425
0.095459486
0.0940319004
0.0926177937
0.0912192669
0.0898378331
0.0884745965
0.0871307267
0.0858073356
0.084504755
0.0832222761
0.0819607596
0.0807204217
0.0795021202
0.0783044601
0.0771262512
0.0759696698
0.0748347569
0.0737278667
0.0726439494
0.0715795247
0.0705340967
0.0695118941
0.0685184975
0.0675436676
0.0665955779
0.0656698058
0.0647655577
0.0638884211
0.0630337253
0.0622049203
0.0613973476
0.0606150865
0.0598563246
0.0591201649
0.0584067367
0.0577103405
0.0570316185
0.0563677632
0.0557168316
0.0550783395
0.0544519547
0.0538399775
0.0532435889
0.0526632065
0.0520984496
0.0515474608
0.0510073176
0.0504745819
0.0499458538
0.0494182665
0.0488898765
0.0483598096
0.0478280527
0.0472946234
0.0467587466
0.0462287296
0.0457026036
0.0451818404
0.0446686083
0.0441649533
0.0436724023
0.0431921536
0.0427250414
0.0422714684
0.0418313055
0.0414037777
0.0409873539
0.0405796684
0.040177538
0.0397771711
0.0393746804
0.0389669751
0.0385520366
0.0381316849
0.0377088955
0.0372876404
0.0368732532
0.0364709785
0.0360852707
0.0357193983
0.0353753739
0.035054193
0.0347563842
0.0344830619
0.0342379981
0.0340321704
0.0338944523
0.111012037
0.111976075
0.112705517
0.113275031
0.113727342
0.114088052
0.114375185
0.114603895
0.114785871
0.114932315
0.115051524
0.1151491
0.115229627
0.115296994
0.115353906
0.115402241
0.115443555
0.115479188
0.115510085
0.115536952
0.115560431
0.115581067
0.115599251
0.115615299
0.115629514
0.115642152
0.115653404
0.11566344
0.115672395
0.115680394
0.115687547
0.115693949
0.115699658
0.115704726
0.115709182
0.115713011
0.11571615
0.115718379
0.115719975
0.115586058
0.11083741
0.11167701
0.11233386
0.112861264
0.113293906
0.113654391
0.113956388
0.114209728
0.11442189
0.114600318
0.114751337
0.114879466
0.114988287
0.115081244
0.115161162
0.115230123
0.115289772
0.115341641
0.115386963
0.115426668
0.115461532
0.115492281
0.115519489
0.115543598
0.115564998
0.115584058
0.115601063
0.115616258
0.115629848
0.11564201
0.115652899
0.115662663
0.115671401
0.115679194
0.115686099
0.115692132
0.115697225
0.115701316
0.115704266
0.115695525
0.110669846
0.111425939
0.112039693
0.112541481
0.112958584
0.113311529
0.113614217
0.113875369
0.114101072
0.114296589
0.11446655
0.114614658
0.114743816
0.114856617
0.114955458
0.115042333
0.115118824
0.115186273
0.115245913
0.115298796
0.115345736
0.115387453
0.115424623
0.115457811
0.115487461
0.115513977
0.115537718
0.115559009
0.115578137
0.115595334
0.115610785
0.11562467
0.115637149
0.115648355
0.115658392
0.115667348
0.115675259
0.115682209
0.115688154
0.115688751
0.11061866
0.111324437
0.111912758
0.112401811
0.112811974
0.113160162
0.113459425
0.113719127
0.113946059
0.114145226
0.114320634
0.114475581
0.114612677
0.11473406
0.114841662
0.114937237
0.115022243
0.115097889
0.115165281
0.115225413
0.115279115
0.115327103
0.115370037
0.115408492
0.115442967
0.115473884
0.115501626
0.115526544
0.115548953
0.115569124
0.115587288
0.11560365
0.115618398
0.115631693
0.115643697
0.115654565
0.11566449
0.115673589
0.115681828
0.11567779
0.110627249
0.11134729
0.111947947
0.112444642
0.112858747
0.113208483
0.113508013
0.113767428
0.113993903
0.114192438
0.114366967
0.114520894
0.114656897
0.114777048
0.114883166
0.11497706
0.115060292
0.115134109
0.115199643
0.115257918
0.115309739
0.115355875
0.115397027
0.115433742
0.115466541
0.115495854
0.115522056
0.115545506
0.11556654
0.115585416
0.115602365
0.115617615
0.115631344
0.115643697
0.115654854
0.115665009
0.115674384
0.115683082
0.115690179
0.115659013
0.110700422
0.111485263
0.112122277
0.112638041
0.113063783
0.113421632
0.113726691
0.113988653
0.114214423
0.114408911
0.114576619
0.114721787
0.114847791
0.114956983
0.115051583
0.115133894
0.115205762
0.115268518
0.115323467
0.115371705
0.11541406
0.115451354
0.115484285
0.115513376
0.115539129
0.115561942
0.115582179
0.115600178
0.115616222
0.115630518
0.115643286
0.115654714
0.115664939
0.115674105
0.115682369
0.11568989
0.115696811
0.115703075
0.115704105
0.115572135
0.110872162
0.111733716
0.112408804
0.112951438
0.113399411
0.113772751
0.114083386
0.11434201
0.114557117
0.11473516
0.114883114
0.115006995
0.115110853
0.115197852
0.115271273
0.115333691
0.115386858
0.115432346
0.115471484
0.115505218
0.115534443
0.115559879
0.115582033
0.115601405
0.115618385
0.115633302
0.115646464
0.115658098
0.115668371
0.11567747
0.115685554
0.115692729
0.115699118
0.115704847
0.115710006
0.115714671
0.115718889
0.115722064
0.115705387
0.115199093
0.111020227
0.112002303
0.112754515
0.113347193
0.1138242
0.11420576
0.114504789
0.114738099
0.114919726
0.115061274
0.115173587
0.115264121
0.115337463
0.115397326
0.11544701
0.115488626
0.115523584
0.1155532
0.115578466
0.115600064
0.115618667
0.115634761
0.115648691
0.11566082
0.115671407
0.115680676
0.115688825
0.115695994
0.115702301
0.115707877
0.115712813
0.11571718
0.115721067
0.115724544
0.115727659
0.115730454
0.115732891
0.115732568
0.11566488
0.113908109
0.0990565805
0.0855004576
0.0747626519
0.0660461914
0.0589116059
0.0532867349
0.0490067822
0.0457320986
0.043197194
0.0411979709
0.0395892297
0.0382454879
0.0371038837
0.0361357898
0.035319585
0.0346410171
0.0340805531
0.0336204389
0.0332312066
0.0328895232
0.0325869573
0.0323214584
0.0320935749
0.0319041248
0.0317520425
0.0316320223
0.0315366476
0.0314588322
0.031394512
0.0313434141
0.0313069392
0.0312866911
0.0312846625
0.0313016892
0.0313367715
0.0313869812
0.0314488819
0.0315201532
0.0315997623
0.0316879641
0.0317853834
0.0318927295
0.0320099774
0.032136085
0.0322690498
0.0324068844
0.0325481824
0.032692541
0.0328405071
0.0329931472
0.0331516762
0.0333172302
0.0334905702
0.0336721188
0.0338618305
0.0340597373
0.0342658892
0.0344805601
0.0347042275
0.0349373867
0.0351806259
0.0354343457
0.0356990874
0.0359751234
0.0362631147
0.0365637075
0.0368775863
0.0372053798
0.0375478292
0.0379053525
0.0382785757
0.038667902
0.0390738568
0.0394969904
0.039937981
0.0403975604
0.0408766506
0.0413756665
0.0418949894
0.0424349238
0.0429955055
0.0435765354
0.0441776239
0.0447983035
0.045438029
0.0460963256
0.0467725834
0.0474662288
0.0481766852
0.0489033072
0.0496454103
0.0504022143
0.051172925
0.0519566994
0.0527527347
0.0535602579
0.0543784299
0.0552066984
0.0560446338
0.0568915661
0.0577471077
0.0586108236
0.0594822967
0.0603611255
0.0612469723
0.0621394455
0.0630382787
0.0639433042
0.0648543544
0.0657713836
0.0666944357
0.0676236382
0.0685591851
0.0695013065
0.0704502196
0.071406056