/*--------------------------------*- C++ -*----------------------------------*\
  =========                 |
  \\      /  F ield         | OpenFOAM: The Open Source CFD Toolbox
   \\    /   O peration     | Website:  https://openfoam.org
    \\  /    A nd           | Version:  6
     \\/     M anipulation  |
\*---------------------------------------------------------------------------*/
FoamFile
{
    version     2.0;
    format      ascii;
    class       volScalarField;
    location    "25000";
    object      EDC<psiReactionThermo>:kappa;
}
// * * * * * * * * * * * * * * * * * * * * * * * * * * * * * * * * * * * * * //

dimensions      [0 0 0 0 0 0 0];

internalField   nonuniform List<scalar> 
44870
(
0.25383439
0.255309065
0.25697575
0.258489853
0.260318809
0.262103785
0.264294375
0.26652375
0.269209196
0.271975329
0.275217004
0.278554499
0.282355165
0.286254455
0.290578755
0.294997403
0.299793755
0.30467924
0.309883615
0.315184044
0.320736303
0.326398677
0.332261899
0.338233592
0.344381901
0.350616365
0.357012152
0.363480087
0.370080154
0.376776917
0.383542805
0.390473958
0.39737373
0.404548862
0.411559163
0.418975552
0.426096897
0.433734211
0.441035826
0.448686577
0.253819143
0.255357285
0.257395686
0.259514914
0.262365712
0.265354001
0.269155226
0.273090103
0.277828357
0.282642484
0.288256253
0.29384155
0.300223461
0.306478498
0.31349024
0.320337986
0.327878523
0.33521312
0.343203488
0.350940846
0.35931695
0.36739049
0.376101828
0.384457766
0.393465657
0.402068569
0.411335945
0.420177771
0.429671533
0.438777385
0.448431041
0.457843889
0.467579427
0.477354684
0.487085228
0.497300957
0.50692815
0.517615435
0.526699898
0.538733927
0.253915203
0.257535509
0.263085523
0.269794126
0.278301881
0.287343665
0.298270982
0.309184596
0.321888467
0.334376553
0.348656244
0.362234226
0.378002155
0.392208586
0.409317575
0.424255291
0.442152671
0.457600864
0.476213647
0.4918293
0.511099263
0.526517672
0.546336307
0.561143724
0.581337659
0.59509985
0.615356082
0.627668497
0.647467689
0.658010801
0.676598442
0.685185793
0.701591799
0.708215299
0.721669378
0.726414872
0.735014964
0.738600449
0.740327455
0.745070206
0.266435191
0.293972528
0.322248329
0.352008019
0.38227386
0.413026044
0.44389537
0.474549381
0.504770907
0.534001315
0.56212475
0.588572955
0.613231524
0.635748212
0.655828038
0.673650363
0.688439792
0.701196492
0.710110401
0.717839508
0.722029252
0.723961964
0.724027831
0.720580701
0.717247209
0.709061353
0.703045825
0.690901711
0.68313635
0.667903165
0.658959021
0.64171412
0.632120201
0.613841762
0.604060924
0.585606859
0.575931935
0.558330905
0.548281863
0.530579871
0.618876416
0.585222322
0.557960265
0.534722841
0.515518671
0.498908651
0.485077711
0.47304629
0.463029123
0.454293442
0.447067583
0.44076185
0.435612826
0.431120783
0.427528902
0.424398413
0.421976051
0.419869915
0.418323467
0.416989304
0.416093495
0.415342018
0.414923647
0.414614426
0.414537127
0.41459667
0.414754796
0.414967559
0.415400116
0.415711743
0.416308308
0.4167295
0.417400889
0.417901087
0.418596205
0.419157668
0.419828059
0.420462527
0.421049777
0.425891446
0.456299654
0.464631535
0.472164342
0.479443787
0.486614342
0.493812993
0.501556304
0.50913191
0.517606964
0.525432193
0.534337835
0.542294619
0.551153612
0.55931051
0.56755676
0.575892674
0.58321798
0.591332203
0.597897734
0.604904632
0.610672207
0.616105952
0.620516471
0.624520527
0.625876044
0.627028538
0.627707181
0.624516683
0.623203625
0.61678815
0.609854086
0.601392526
0.589112535
0.577707518
0.561872867
0.547295404
0.529451145
0.51248222
0.494149446
0.476382423
0.458597567
0.441101642
0.423992962
0.407359687
0.391222691
0.375949468
0.361709182
0.34861425
0.336713331
0.325926643
0.316214736
0.307408303
0.299449759
0.292166767
0.285518461
0.279388679
0.2737683
0.268614728
0.263930118
0.259707426
0.255924999
0.252594764
0.249670448
0.247191355
0.245077641
0.243367341
0.241940061
0.240805318
0.239815595
0.238963434
0.238162917
0.237381302
0.236684754
0.235940927
0.235408215
0.234846288
0.234420691
0.234103376
0.233912417
0.233815218
0.233809808
0.23390078
0.234053809
0.234268457
0.23451371
0.23482079
0.23511704
0.235466674
0.2358356
0.236240237
0.236679468
0.237107275
0.237567798
0.238061346
0.238591992
0.239160328
0.239771145
0.240420706
0.241112544
0.241834327
0.242567616
0.243311183
0.244072965
0.244838111
0.245633794
0.246453099
0.247284397
0.248182581
0.249111812
0.25011764
0.251166901
0.252254684
0.253450919
0.25473159
0.256090464
0.25753678
0.259078165
0.260722388
0.262477179
0.264347891
0.266333898
0.268420373
0.270573076
0.272726882
0.274781906
0.276633255
0.278191944
0.27934142
0.280157816
0.280583965
0.280637727
0.280383717
0.279878274
0.279161464
0.278276894
0.277266997
0.276131196
0.274891227
0.273608616
0.272252256
0.270801819
0.269239569
0.267541753
0.265695661
0.263732341
0.261719044
0.259710702
0.257730801
0.255782194
0.253861225
0.25195838
0.250061624
0.248159945
0.246245769
0.244311184
0.242344768
0.240335706
0.238284521
0.236191386
0.234056043
0.231879517
0.229664093
0.227413126
0.225130865
0.222822237
0.220492685
0.218147971
0.21579401
0.213436728
0.211081922
0.208735157
0.206401317
0.204083419
0.201775907
0.199498408
0.197267572
0.195069736
0.192906036
0.190779108
0.188691038
0.186643648
0.184638395
0.18267549
0.180754081
0.17887363
0.177035217
0.175236612
0.173464437
0.171718297
0.16998462
0.168304394
0.166560215
0.1648158
0.163061139
0.161286177
0.159582621
0.157830062
0.156195156
0.15469351
0.153488782
0.152386436
0.151202122
0.149786488
0.148945503
0.148148118
0.147525491
0.146704206
0.145494455
0.14515264
0.144924366
0.145113261
0.145165026
0.145691934
0.146464381
0.14745185
0.148555602
0.149575069
0.151858965
0.153456967
0.153936205
0.154278726
0.154399452
0.154355132
0.154267643
0.154304897
0.154556391
0.155160126
0.156285189
0.157939659
0.159938245
0.162009141
0.163839449
0.165117657
0.165648168
0.16541232
0.164527514
0.163269007
0.162290301
0.16031194
0.158150625
0.156090647
0.154238183
0.152663967
0.151428945
0.150585869
0.150175823
0.150222205
0.150721888
0.151633514
0.152862811
0.154247119
0.155546072
0.156451848
0.156636001
0.155876356
0.154606889
0.151263639
0.147477265
0.143399761
0.139307694
0.135454836
0.132021319
0.129109486
0.126757509
0.12495505
0.123659942
0.122808169
0.122322109
0.122105972
0.122052375
0.550888073
0.561861623
0.571973008
0.581262475
0.591107594
0.59957086
0.609036695
0.616291967
0.624809743
0.630397684
0.63721036
0.640597712
0.645039058
0.645832936
0.645894208
0.645027017
0.641302751
0.637791543
0.629840942
0.622475079
0.612143093
0.600799381
0.588880035
0.574350464
0.561081427
0.544938331
0.53059332
0.514141905
0.49918738
0.482937523
0.467628202
0.452269342
0.437377625
0.423415759
0.409687409
0.397191666
0.384978647
0.374097353
0.363639479
0.354315452
0.345401454
0.337238792
0.329488455
0.322259394
0.315494033
0.309223551
0.303438229
0.298100464
0.293171229
0.288580904
0.2842949
0.280250166
0.276435689
0.272802641
0.269354043
0.266052677
0.262906937
0.259900609
0.257048013
0.254353948
0.251833197
0.249510106
0.247390505
0.245519244
0.243864643
0.242479478
0.241289506
0.240312284
0.239446579
0.238692777
0.237984699
0.237300049
0.236686868
0.236040622
0.23556716
0.235072526
0.234693284
0.234405632
0.234231492
0.234131467
0.234124724
0.234207952
0.234345792
0.234542765
0.234774525
0.2350663
0.235344016
0.235693324
0.236077042
0.236456381
0.236875773
0.237310804
0.237773113
0.23826724
0.238797508
0.239364951
0.239974475
0.240622534
0.241313347
0.242031018
0.242760241
0.243501296
0.244261165
0.245024833
0.245822119
0.246639235
0.247470391
0.248371686
0.249300914
0.2503076
0.251343276
0.252450526
0.253648903
0.254926176
0.256284861
0.257731132
0.259271857
0.260914145
0.262664824
0.264527972
0.266501244
0.268567826
0.270691659
0.272807108
0.274815407
0.276615772
0.278122959
0.279234952
0.280000206
0.280401352
0.28043388
0.280165553
0.279651813
0.278930313
0.278044269
0.277032999
0.275893529
0.274663851
0.273379953
0.272019214
0.270563654
0.268994695
0.267289618
0.265438687
0.263476377
0.261469419
0.25946897
0.257496505
0.255554291
0.253638494
0.251739773
0.249846328
0.247947365
0.246035683
0.244103491
0.242139255
0.240132196
0.238083552
0.2359933
0.233861136
0.231688094
0.229476457
0.227229567
0.224951651
0.222647599
0.220322819
0.217983032
0.21563411
0.21328194
0.21093228
0.208590657
0.206261929
0.203949059
0.201645936
0.199373371
0.197147968
0.194954639
0.19279529
0.190672623
0.188588661
0.186545115
0.184543497
0.182584252
0.180666481
0.178789148
0.176953101
0.175157211
0.173388823
0.17164619
0.169912423
0.168236192
0.166492628
0.164753559
0.163001138
0.161229768
0.1595185
0.157778659
0.156155256
0.154642676
0.153490807
0.152347742
0.151209295
0.149778363
0.148920027
0.148177416
0.147511017
0.146741601
0.145498481
0.145152808
0.14494621
0.145103861
0.145193002
0.145664205
0.146457231
0.147457367
0.148528938
0.149567704
0.151879334
0.153467863
0.153912629
0.154265185
0.154398365
0.154354224
0.154270028
0.154302198
0.154545838
0.155138961
0.156244751
0.157877527
0.159853885
0.161904766
0.163721472
0.164992977
0.165521121
0.165286325
0.164405417
0.163151914
0.162204916
0.160211266
0.158055317
0.156004955
0.154160975
0.152593304
0.15136294
0.150522747
0.150113861
0.150159687
0.150657086
0.151564724
0.152788463
0.154166002
0.15545767
0.156356721
0.156535994
0.155773654
0.154536538
0.151163179
0.147393354
0.143328683
0.139248305
0.135405947
0.131981454
0.129077071
0.126731035
0.124933175
0.123641521
0.122792252
0.122307935
0.122092989
0.122040136
0.750878075
0.749731436
0.74422472
0.735390428
0.723543843
0.708520098
0.692083183
0.672566305
0.653018844
0.630954227
0.609802475
0.58735562
0.566222891
0.545219843
0.525341299
0.506655804
0.488789257
0.472544873
0.457072032
0.443088873
0.430139299
0.41803108
0.407165594
0.396716773
0.387659818
0.378882321
0.371166451
0.363779546
0.357017642
0.350447549
0.344419767
0.338643073
0.333336359
0.328373285
0.323794265
0.319633401
0.315689553
0.312107719
0.308559344
0.305273172
0.301938744
0.298808635
0.295663705
0.292655589
0.289756731
0.286973069
0.284305207
0.281739025
0.279263951
0.276857983
0.274517469
0.272225107
0.269983794
0.267778247
0.265611433
0.263468738
0.261356346
0.259267793
0.257216895
0.255208842
0.253267948
0.251407382
0.249657878
0.248032266
0.246538216
0.245222493
0.244030488
0.242983751
0.242025472
0.241161296
0.240349449
0.239579997
0.238881885
0.238185569
0.237628944
0.237079765
0.236629811
0.236262721
0.235999596
0.235790264
0.235694842
0.235680085
0.23571241
0.235809576
0.235955199
0.236158753
0.236386464
0.236656957
0.236972539
0.237310429
0.237683982
0.238085861
0.238519464
0.238987853
0.239493584
0.240038225
0.240626374
0.241254824
0.241928302
0.242622562
0.243331104
0.244055668
0.244800906
0.245552021
0.246343836
0.247147134
0.247971444
0.248872903
0.249795271
0.250778037
0.251830291
0.252942618
0.254134969
0.255407393
0.256762351
0.258204574
0.259739783
0.26137366
0.263111022
0.264953158
0.266894073
0.268912905
0.270970183
0.272999425
0.274905478
0.276595855
0.277993466
0.279021908
0.279686565
0.280028733
0.280016681
0.279716946
0.27918437
0.278451374
0.277560611
0.276539344
0.275403934
0.274185067
0.272896361
0.271524581
0.270056031
0.268471381
0.266749538
0.264888471
0.262929274
0.260935585
0.258951292
0.25699394
0.255064752
0.253159309
0.251268844
0.249382002
0.247488415
0.245581729
0.24365435
0.241694484
0.239691396
0.237648052
0.23556381
0.233438308
0.231272609
0.229068995
0.226830775
0.224562122
0.222267854
0.219953298
0.217624084
0.215285994
0.212944827
0.210606252
0.208275721
0.205958032
0.203656042
0.201362359
0.1991005
0.196886989
0.194703349
0.192553473
0.190440034
0.188364874
0.18632972
0.184336419
0.182385402
0.180474924
0.178603624
0.176773708
0.174986437
0.173225917
0.17148696
0.169751283
0.168066097
0.166360166
0.164622893
0.162867674
0.161103897
0.159410442
0.157696397
0.156080058
0.154545106
0.153508266
0.152304523
0.151227555
0.149767239
0.148892941
0.148253477
0.147491624
0.146799819
0.145514164
0.145180197
0.145008185
0.145090772
0.145247166
0.145596473
0.146455341
0.147489418
0.148521985
0.149572329
0.15155121
0.153218162
0.153924911
0.15430898
0.15442615
0.154360432
0.15430739
0.154346579
0.154567042
0.155110327
0.156166376
0.157754075
0.159679233
0.161682046
0.163468004
0.164725158
0.165247845
0.165014609
0.164141491
0.1628985
0.162019559
0.159990973
0.157847351
0.155817864
0.153992116
0.15243851
0.151218171
0.150384195
0.149977842
0.15002254
0.150515141
0.151414371
0.152626398
0.153989686
0.155266018
0.156150878
0.156319787
0.155551279
0.15419664
0.150941486
0.147210737
0.143173509
0.139118295
0.135298631
0.131893697
0.129005524
0.126672462
0.124884634
0.123600498
0.122756707
0.12227625
0.122063966
0.122012797
0.52269858
0.506108471
0.49741894
0.484790101
0.471797964
0.458268781
0.445486196
0.433095273
0.421951824
0.411458519
0.402377184
0.394219871
0.387369574
0.381247225
0.376074163
0.37141994
0.367284351
0.363629414
0.360229408
0.357223001
0.354343872
0.351820984
0.349345745
0.347062055
0.344791036
0.342268756
0.339917388
0.337314215
0.334684453
0.331939476
0.329244351
0.326534232
0.323918066
0.321344151
0.318828511
0.31634688
0.313839096
0.311356196
0.308789442
0.306278262
0.303681396
0.301186726
0.298647122
0.296189625
0.293797269
0.291467277
0.289203415
0.286998281
0.284846527
0.282734603
0.280659787
0.278609355
0.276583169
0.274569366
0.272566179
0.270566196
0.268571949
0.266581381
0.264605689
0.262651651
0.260741487
0.258881946
0.257109605
0.255396191
0.253813743
0.252363965
0.250984695
0.249718339
0.248527512
0.247417335
0.246362507
0.245359936
0.244427905
0.243522413
0.242732848
0.241976673
0.241308013
0.240720064
0.240224098
0.239801627
0.239465101
0.239212716
0.239030192
0.238914536
0.23886391
0.238876108
0.238936566
0.239046972
0.239212418
0.239421136
0.239675512
0.239969958
0.240306907
0.24068699
0.241110112
0.241578973
0.242096985
0.242661892
0.243277037
0.243904553
0.244556176
0.245231711
0.245931668
0.246643042
0.247405974
0.248167095
0.248966056
0.249835815
0.25074429
0.25171006
0.252743249
0.253842496
0.255018518
0.256274651
0.25761365
0.25903913
0.260555241
0.262165418
0.263871342
0.265670129
0.267550613
0.269486628
0.271434875
0.273328997
0.275080494
0.276608642
0.27784809
0.27874401
0.279293219
0.279525019
0.27945446
0.279106787
0.278544023
0.277790517
0.276880552
0.275856508
0.274722429
0.27350153
0.272199236
0.270809447
0.269318815
0.267707342
0.26595957
0.264085249
0.26213259
0.260157924
0.25819543
0.25625815
0.25434631
0.252454244
0.25057446
0.248696092
0.246809316
0.244909152
0.242988107
0.241033967
0.239036026
0.237000139
0.234924351
0.232808315
0.230653139
0.228461102
0.226235458
0.223980299
0.221700326
0.219400752
0.217087065
0.214764915
0.212439964
0.210117753
0.207803613
0.205502263
0.203216414
0.20093656
0.198693873
0.196495094
0.194325682
0.192189949
0.190090229
0.188028071
0.186005455
0.184024887
0.182086265
0.180186028
0.178323033
0.17650307
0.174730764
0.172980704
0.171244822
0.169504835
0.167830893
0.166163959
0.164420651
0.162667283
0.160901877
0.15926661
0.157559553
0.155937851
0.154413605
0.153507753
0.152252629
0.151250108
0.149734806
0.148858818
0.148331924
0.147448871
0.146895126
0.14552719
0.145247946
0.145112169
0.145078328
0.145340633
0.145514479
0.146498928
0.147552578
0.148532621
0.149617103
0.151251608
0.15298734
0.153971604
0.154418759
0.154548383
0.154456424
0.154424409
0.154464649
0.154667588
0.155151877
0.156124113
0.157627196
0.159464404
0.161383155
0.163111912
0.164338844
0.16484675
0.164611766
0.163747838
0.162519089
0.161745249
0.159656611
0.157533658
0.155535807
0.153737176
0.152204471
0.150999071
0.150174403
0.149771902
0.149815029
0.150300624
0.151187524
0.152382362
0.15372474
0.154978567
0.155842576
0.155996214
0.155217449
0.153702523
0.150616285
0.146936922
0.142939917
0.138922143
0.135136378
0.131760728
0.1288969
0.126583377
0.124810656
0.12353784
0.122702331
0.122227759
0.122019557
0.121971029
0.467962891
0.455491427
0.460382663
0.450801496
0.444135846
0.439458815
0.436280797
0.433748128
0.431811465
0.429856609
0.428120103
0.425926092
0.423749872
0.421057762
0.418409427
0.415021999
0.411915438
0.408725581
0.405240646
0.401752171
0.398140067
0.394575356
0.390798294
0.387067385
0.383081156
0.37916375
0.375104585
0.371017827
0.367007849
0.363043396
0.359208374
0.355448167
0.351805764
0.348217738
0.344683188
0.341165803
0.337654905
0.334180755
0.33071067
0.327334005
0.323966583
0.320741082
0.317535766
0.31445132
0.311473567
0.308594929
0.305819942
0.303140481
0.30054706
0.298022477
0.295557462
0.293136561
0.290754565
0.288398971
0.286066141
0.283751827
0.281455152
0.279176769
0.276924937
0.274707302
0.272538015
0.270429131
0.268396793
0.266450398
0.264594382
0.262853191
0.261195481
0.25963333
0.258141684
0.256725982
0.255371084
0.254074902
0.252850026
0.251666365
0.250583373
0.249551264
0.24859529
0.247717546
0.246923343
0.246207566
0.245570715
0.245015796
0.244540744
0.244137975
0.243816461
0.243562976
0.243375142
0.243252822
0.243195793
0.243196728
0.243255363
0.243366751
0.24353424
0.24375514
0.244027608
0.244357086
0.244744623
0.245191126
0.245689054
0.246194669
0.246742639
0.247324432
0.247935401
0.248567755
0.249245974
0.249950504
0.250692508
0.251497919
0.252356621
0.25327647
0.254265279
0.255324719
0.256461255
0.257678431
0.258978567
0.260363823
0.261836147
0.263395821
0.265040293
0.266761355
0.268541816
0.270350087
0.272140114
0.273847928
0.275395017
0.27671473
0.277755364
0.278479558
0.27888399
0.278993434
0.278830581
0.278420832
0.277809789
0.277024905
0.276095307
0.275052174
0.273907266
0.272667367
0.271340247
0.269920579
0.268393869
0.266742262
0.264960792
0.263073619
0.261131521
0.259178907
0.257240344
0.255324723
0.253430946
0.251553418
0.249684611
0.247814784
0.245934685
0.24404124
0.242124767
0.24017626
0.238185964
0.236158922
0.234093154
0.231988536
0.229846242
0.227668534
0.22545859
0.223220376
0.220958474
0.218677909
0.216383994
0.214082202
0.21177802
0.209476818
0.207183774
0.204903493
0.202638526
0.200376241
0.198159943
0.195978956
0.193828199
0.191710941
0.189629106
0.187584176
0.185578519
0.183614613
0.181691226
0.179804245
0.177955343
0.176152862
0.17439631
0.172655911
0.170925543
0.169211733
0.167563697
0.165912291
0.164173974
0.162427629
0.160677529
0.159109958
0.157382968
0.15578445
0.154257372
0.15322705
0.152146729
0.150967649
0.149544296
0.148558887
0.148051023
0.147322276
0.146615047
0.145313077
0.144939181
0.144844496
0.144858843
0.145029649
0.145194669
0.146089374
0.147190557
0.148199613
0.1492204
0.150697227
0.152426269
0.153578603
0.154092551
0.154247722
0.154194505
0.1541972
0.154265424
0.154471101
0.154962121
0.15595077
0.1574477
0.159245586
0.16109861
0.16275427
0.16391284
0.164372234
0.164113946
0.163248378
0.162029191
0.161401451
0.159211798
0.157120621
0.155164396
0.153400603
0.151894753
0.150708611
0.14989598
0.149498479
0.149539571
0.150016062
0.15088693
0.152059429
0.153374645
0.154599241
0.155436134
0.155569869
0.154779138
0.153172957
0.150196052
0.14657584
0.142630565
0.138661742
0.134920505
0.131583481
0.128751883
0.126464234
0.124711524
0.123453777
0.122629369
0.122162685
0.121959959
0.121915041
1
1
1
1
0.998431355
0.879898075
0.79779684
0.739880831
0.696355153
0.661022607
0.632100705
0.60709495
0.58571415
0.566609447
0.549682988
0.534645912
0.520818556
0.508242124
0.496546306
0.485691097
0.475457928
0.465885462
0.456630523
0.447931797
0.439441221
0.431472892
0.423785173
0.416488045
0.409599249
0.403048906
0.396836171
0.390887289
0.385207034
0.379723016
0.374420478
0.369260131
0.364240994
0.359377271
0.354645735
0.35009787
0.345658621
0.34142858
0.33729468
0.333346572
0.329567921
0.325949975
0.322491574
0.319178175
0.315992194
0.312910168
0.309917817
0.306998241
0.304143361
0.301340421
0.298585075
0.295871884
0.293198642
0.290565872
0.287978299
0.285442146
0.282968194
0.280568472
0.278252932
0.276036401
0.27391276
0.271904122
0.269984877
0.268164453
0.266418226
0.26475381
0.263156709
0.261624069
0.260167053
0.258759532
0.257448949
0.256198846
0.255018546
0.253917196
0.252897411
0.251956353
0.251094064
0.250314377
0.249618872
0.249000138
0.248471768
0.248009906
0.247623228
0.247311169
0.247069954
0.246894373
0.246783954
0.246734353
0.246750033
0.246824826
0.246957739
0.247157224
0.247421336
0.247749425
0.2481257
0.248530127
0.248976698
0.249461488
0.249982152
0.250532067
0.251129149
0.251763586
0.252440904
0.253181505
0.25398169
0.254847001
0.255783757
0.256794074
0.257882747
0.25905263
0.260305193
0.261641193
0.263060617
0.264561071
0.266136656
0.267775272
0.269455943
0.271144394
0.272794475
0.274345871
0.275728304
0.276885052
0.277773274
0.278364613
0.278657417
0.278674011
0.27843797
0.277974479
0.277321245
0.276504595
0.275551536
0.274486468
0.273318787
0.272054443
0.270699551
0.269248131
0.267686237
0.265999852
0.264194361
0.262301597
0.260368205
0.258430106
0.256506457
0.254603795
0.252720606
0.250851256
0.248988462
0.247123134
0.245246632
0.243356886
0.241441855
0.239496419
0.23751179
0.235490734
0.233432002
0.231335631
0.229202832
0.227035845
0.224837776
0.222612484
0.220364466
0.218098575
0.215819992
0.213534044
0.211246072
0.208961316
0.206684832
0.204421126
0.202172638
0.199923729
0.197727911
0.195561816
0.193425941
0.191323278
0.189255559
0.187224398
0.185232395
0.183281593
0.181369863
0.179493696
0.177657034
0.175868503
0.174122555
0.172388281
0.170666197
0.168974984
0.167353628
0.165701841
0.163970044
0.162239045
0.160526924
0.158998804
0.157259229
0.155671199
0.154153128
0.153021933
0.151957216
0.150759759
0.149417936
0.14838488
0.147746039
0.147058031
0.146332316
0.145140629
0.1446954
0.144481487
0.144477079
0.144673143
0.144899435
0.145673048
0.146685033
0.147670372
0.148728277
0.150172394
0.151824547
0.152964092
0.153520933
0.153752054
0.153756554
0.153767838
0.153851053
0.154104518
0.154665777
0.155713768
0.15724766
0.159065808
0.160905491
0.162509307
0.163603229
0.164010555
0.163722249
0.162848699
0.161632572
0.161136288
0.15884267
0.15678398
0.154861992
0.153126028
0.151641583
0.150470823
0.149667809
0.149274243
0.14931356
0.149782542
0.150640298
0.151794608
0.153087791
0.154288765
0.155103852
0.155221732
0.154422628
0.15278357
0.149859554
0.146282736
0.142378857
0.138449715
0.134744675
0.131439088
0.12863369
0.12636704
0.124630597
0.123385141
0.122569746
0.122109418
0.121911127
0.121869142
1
1
1
1
1
1
1
1
1
1
1
1
1
1
1
1
1
1
1
1
1
1
1
1
1
1
1
1
1
1
1
1
1
1
1
1
1
1
1
1
1
1
1
1
1
1
1
1
1
1
1
1
1
1
1
1
1
1
1
1
1
1
1
1
1
1
1
1
1
1
1
1
1
1
1
1
1
1
1
1
1
1
1
1
1
1
1
1
1
1
1
1
1
1
1
1
1
1
1
1
1
1
1
1
1
1
1
1
1
1
1
1
1
1
1
1
1
1
1
1
1
1
1
1
1
1
1
1
1
1
1
1
1
1
1
1
1
1
1
1
1
1
1
1
1
1
1
1
1
1
1
1
1
1
1
1
1
1
1
1
1
1
1
1
1
1
1
1
1
1
1
1
1
1
1
1
1
1
1
1
1
1
1
1
1
1
1
1
1
1
1
1
1
1
1
1
1
1
1
1
1
1
1
1
1
1
1
1
1
1
1
1
1
1
1
1
1
1
1
1
1
1
1
1
1
1
1
1
1
1
1
1
1
1
1
1
1
1
1
1
1
1
1
1
1
1
1
1
1
1
1
1
1
1
1
1
1
1
1
1
1
1
1
1
1
1
1
1
1
1
1
1
1
1
1
1
1
1
1
1
1
1
1
1
1
1
1
1
1
1
1
1
1
1
1
1
1
1
1
1
1
1
1
1
1
1
1
1
1
1
1
1
1
1
1
1
1
1
1
1
1
1
1
1
1
1
1
1
1
1
1
0.91577889
0.84798
0.792566989
0.746318899
0.707277695
0.674016197
0.644875562
0.619158238
0.596359421
0.575735373
0.55704976
0.539755148
0.524001142
0.50927432
0.495844596
0.483391674
0.471908301
0.461296292
0.451405329
0.442143049
0.433412141
0.425171579
0.417333953
0.409865877
0.402720098
0.395888917
0.389358733
0.383099278
0.377127157
0.371371739
0.36591013
0.360634396
0.355629225
0.350873925
0.346353803
0.342057613
0.337962523
0.334042026
0.330266803
0.326618577
0.323079371
0.319638526
0.316282829
0.313006285
0.309800489
0.306662711
0.303590592
0.300585045
0.297650983
0.294796589
0.292032951
0.289366133
0.286812103
0.284359452
0.282027126
0.279791927
0.277662971
0.27561472
0.273658151
0.271776792
0.269967681
0.268241324
0.26657378
0.265004187
0.263504718
0.262071928
0.260722557
0.259456596
0.258271727
0.257167934
0.256148676
0.255217837
0.254368828
0.253618934
0.252933688
0.252334772
0.25181957
0.251380788
0.25101531
0.250722609
0.250499026
0.250347372
0.250264966
0.250249417
0.250303856
0.250432703
0.250626192
0.250874866
0.2511649
0.251499636
0.251877351
0.252297394
0.252754572
0.253261479
0.253815196
0.254417989
0.255085262
0.255817771
0.256619591
0.257495674
0.258448214
0.259480562
0.260594705
0.261791083
0.263068897
0.264426039
0.265857316
0.267353426
0.268898461
0.270467993
0.272025616
0.273525813
0.274912503
0.276123784
0.277112723
0.277844834
0.278299742
0.278477624
0.278398555
0.27808607
0.27756496
0.276865759
0.276013097
0.275032357
0.273939074
0.272744009
0.271450358
0.270063039
0.268575365
0.266974945
0.265252356
0.263423709
0.261526303
0.259601107
0.257676165
0.255765875
0.253874685
0.252000608
0.250138158
0.248280278
0.246418492
0.244544806
0.242658057
0.240743953
0.238801121
0.236821475
0.234806029
0.232754052
0.230665725
0.228542296
0.22638597
0.224199776
0.221987485
0.219753454
0.2175024
0.215239354
0.21296949
0.210698003
0.208429996
0.206170396
0.203923607
0.20169199
0.199458059
0.197281791
0.195130997
0.193010396
0.19092269
0.188869466
0.186852517
0.184874574
0.182937081
0.181037191
0.179172428
0.177348912
0.175574272
0.173838303
0.172110106
0.170399074
0.168731808
0.167131594
0.165480137
0.163753769
0.162052516
0.16037236
0.158879697
0.157120927
0.155551945
0.15405361
0.152834303
0.151771518
0.150559798
0.149304068
0.148212512
0.147462386
0.14677561
0.146073197
0.144969014
0.144464603
0.144137095
0.144085051
0.144323408
0.144604175
0.145291157
0.146189848
0.14714757
0.148228794
0.14967998
0.151234223
0.152349375
0.152939308
0.15325587
0.153324472
0.153335492
0.153434332
0.153738433
0.154369874
0.155466638
0.157028245
0.158859419
0.160679863
0.162231664
0.163264722
0.163624218
0.163309506
0.162430596
0.161219261
0.160666641
0.158454332
0.156434516
0.15454833
0.152841
0.151378434
0.150223279
0.149429863
0.149039975
0.149077041
0.149537859
0.15038173
0.15151703
0.152787411
0.153964166
0.15475714
0.154859277
0.154053296
0.152388994
0.149513009
0.145980419
0.142119567
0.138231678
0.134564169
0.131291069
0.128512634
0.126267493
0.124547651
0.123314683
0.122508377
0.122054412
0.121860579
0.121821505
1
1
1
1
1
1
1
1
1
1
1
1
1
1
1
1
1
0.972907479
0.898481322
0.837676422
0.785473296
0.740904996
0.7022222
0.66878394
0.639210764
0.613645917
0.590993874
0.570632613
0.552221319
0.535366212
0.519859745
0.505598927
0.49241147
0.480155151
0.46872107
0.458015908
0.447960572
0.438471383
0.429486273
0.420974538
0.412877014
0.405247569
0.397993661
0.391186043
0.384783655
0.378751628
0.373050426
0.367639971
0.362479685
0.357535892
0.352791038
0.348226706
0.343828429
0.339579039
0.335465708
0.331473404
0.327594961
0.32382221
0.320151378
0.316585423
0.313130248
0.309793996
0.306580951
0.303501981
0.300545644
0.29772523
0.295017764
0.292433738
0.289942491
0.287566235
0.285273195
0.283067127
0.280957611
0.27892044
0.276984664
0.275132259
0.273338667
0.271640201
0.270029399
0.268501224
0.267058171
0.26570358
0.26444218
0.263268492
0.262194869
0.261203562
0.260299959
0.259485143
0.25875545
0.258107871
0.257541732
0.257054523
0.256647746
0.256320722
0.256071321
0.255898314
0.255812834
0.255790724
0.255833114
0.255930487
0.256079726
0.256279097
0.256528855
0.256825918
0.257178331
0.25758752
0.258054864
0.258590748
0.259198319
0.25988074
0.260641317
0.261481557
0.262402965
0.263405772
0.264488309
0.265646942
0.266876094
0.268166265
0.269503503
0.270867292
0.272230309
0.273555728
0.274801956
0.275920879
0.27686336
0.277594732
0.278090261
0.278337931
0.278339924
0.278113255
0.277679327
0.277062348
0.276283013
0.27536277
0.274318786
0.273166994
0.271914038
0.270561045
0.269108132
0.267550665
0.265880868
0.264104858
0.26224908
0.260348738
0.258433897
0.256523775
0.254627841
0.25274833
0.250882748
0.249025907
0.247171266
0.245311157
0.243438825
0.241552506
0.239639104
0.237698557
0.235724188
0.233715762
0.231672884
0.22959588
0.227486015
0.225345417
0.223176996
0.220984419
0.218771738
0.216543477
0.214304424
0.212059515
0.209813705
0.207571875
0.205338737
0.203118518
0.200913559
0.198712296
0.196557703
0.194431363
0.19233507
0.190271253
0.188241463
0.186247454
0.184291506
0.182374648
0.180494826
0.178651013
0.176848531
0.175091554
0.173370554
0.171661288
0.169979327
0.168338181
0.166750884
0.165111715
0.163428543
0.161785911
0.160121408
0.158648494
0.156904976
0.155340226
0.153849942
0.152596073
0.151504301
0.150294832
0.14897082
0.147819582
0.147115335
0.14635466
0.145707396
0.144505672
0.143941967
0.14370069
0.143557459
0.143815829
0.143934907
0.144625215
0.145516357
0.146412867
0.147495028
0.148809828
0.150389573
0.151532115
0.152197812
0.152540198
0.152655316
0.15275377
0.152923288
0.153292617
0.153995076
0.155155513
0.156734135
0.158540278
0.160301971
0.161761599
0.16269724
0.162983749
0.162631829
0.161747717
0.160544342
0.159746773
0.157803476
0.155863565
0.154036086
0.15237451
0.150947043
0.1498172
0.149039612
0.148656091
0.148689978
0.149138035
0.149959811
0.151064612
0.152298212
0.153435716
0.154192632
0.15426878
0.153451069
0.151767638
0.148951122
0.145485184
0.141692709
0.13787137
0.134264889
0.131044908
0.128310741
0.126101155
0.124408992
0.123196957
0.122405917
0.121962745
0.12177654
0.121742395
1
1
1
1
1
1
1
1
1
1
1
1
1
1
1
1
1
1
1
1
1
1
0.976452894
0.903277462
0.843625372
0.795541141
0.753609652
0.716683375
0.683908979
0.654449036
0.628217772
0.604925416
0.583889172
0.564832388
0.547432943
0.5314466
0.516576575
0.502644751
0.489566176
0.477287617
0.465777166
0.455065607
0.445065751
0.435798512
0.427165511
0.419080866
0.411454204
0.404232387
0.397366713
0.390832677
0.384619729
0.378703482
0.373059538
0.367656786
0.362467252
0.357464775
0.352629119
0.347949483
0.343419912
0.339041579
0.33481828
0.330754329
0.326851869
0.323113511
0.319529411
0.316105525
0.312821685
0.309684279
0.306657497
0.30378205
0.300989704
0.298311422
0.295749101
0.293274758
0.290907777
0.288632033
0.286436116
0.284338249
0.282333743
0.280421581
0.278603429
0.276881558
0.275259904
0.273733873
0.272311799
0.270984152
0.269750391
0.268610956
0.26756439
0.266608644
0.265742956
0.264965874
0.264278113