/*--------------------------------*- C++ -*----------------------------------*\
  =========                 |
  \\      /  F ield         | OpenFOAM: The Open Source CFD Toolbox
   \\    /   O peration     | Website:  https://openfoam.org
    \\  /    A nd           | Version:  6
     \\/     M anipulation  |
\*---------------------------------------------------------------------------*/
FoamFile
{
    version     2.0;
    format      ascii;
    class       volScalarField;
    location    "25000";
    object      epsilon;
}
// * * * * * * * * * * * * * * * * * * * * * * * * * * * * * * * * * * * * * //

dimensions      [0 2 -3 0 0 0 0];

internalField   nonuniform List<scalar> 
44870
(
6519.96132
6194.96218
5890.81371
5615.03533
5357.10864
5125.79902
4908.75852
4716.28945
4534.02709
4373.69802
4219.44568
4084.54313
3951.75842
3836.25732
3719.3647
3618.20544
3513.00736
3422.26925
3325.68301
3242.57856
3152.48255
3075.17871
2990.16768
2917.5613
2836.74228
2768.2533
2691.08588
2626.47983
2552.66123
2491.89439
2421.28774
2364.38272
2296.98344
2243.94748
2179.88924
2130.61356
2070.26141
2024.51592
1968.73576
1925.70501
6518.74343
6198.40089
5906.41358
5651.16904
5420.63837
5221.71125
5040.06767
4884.8934
4738.48659
4614.08424
4491.80261
4387.72783
4280.6341
4189.60066
4090.83575
4008.3996
3913.97344
3836.67243
3744.62346
3670.55571
3580.1992
3508.51174
3419.90688
3350.48673
3264.05933
3197.27497
3113.5571
3050.06901
2969.55092
2910.20494
2833.22924
2779.0117
2705.71384
2657.76428
2588.03571
2547.89849
2481.31307
2450.65502
2385.60825
2374.03509
6523.90047
6288.89482
6120.89214
6017.99039
5953.07734
5921.8
5912.63136
5916.66268
5924.78748
5943.00691
5950.85166
5963.83773
5962.72121
5958.22919
5943.31766
5925.93194
5887.16431
5858.84927
5799.545
5762.98529
5688.08563
5646.51844
5562.24991
5519.07012
5431.90031
5390.34066
5306.35031
5269.44741
5194.47792
5164.93769
5104.07633
5084.43489
5042.43742
5034.96461
5019.2548
5025.03818
5035.2026
5071.07041
5111.9207
5374.76969
7052.75363
7831.53379
8632.45502
9525.89201
10419.9631
11357.9775
12269.2532
13195.2433
14067.4736
14926.7512
15708.7867
16458.8593
17119.6092
17737.9903
18266.6845
18754.0042
19158.1616
19530.6628
19829.0716
20116.3937
20327.5622
20558.471
20709.7625
20910.8413
21028.5158
21223.1354
21328.3742
21543.0286
21660.3136
21909.9687
22052.6749
22360.1827
22538.2843
22919.7241
23144.8188
23620.385
23909.9255
24530.754
25049.1011
27775.1645
27787.5787
34280.733
41145.0895
48546.7665
56081.1874
63914.9272
71592.4727
79301.1352
86582.9879
93673.8373
100133.156
106260.624
111640.743
116634.589
120848.648
124690.783
127784.344
130561.678
132663.529
134518.189
135797.473
136889.544
137522.536
138004.066
138158.38
138118.615
137938.994
137682.263
137117.577
136723.943
135936.295
135395.163
134514.272
133872.2
132971.21
132255.82
131401.266
130594.483
129892.289
123969.536
1881.13679
1838.12792
1796.95047
1758.27281
1720.34491
1684.13597
1648.34025
1614.05015
1580.18991
1547.94135
1516.39728
1486.59803
1458.05593
1431.29568
1406.47371
1383.57166
1362.87323
1344.34927
1328.8096
1315.41447
1305.70099
1298.38782
1295.17708
1296.23492
1299.97241
1308.0269
1321.50298
1341.0932
1364.38185
1396.60829
1433.07471
1479.7471
1532.41473
1595.58072
1667.61941
1750.15259
1844.64585
1950.37636
2070.33096
2203.88123
2353.45313
2518.84908
2703.24736
2904.43685
3125.02426
3365.19708
3624.73882
3903.82536
4202.24961
4520.18861
4857.18521
5213.06965
5586.79417
5977.6336
6383.96399
6804.58985
7237.58637
7681.4646
8134.40662
8594.68729
9060.6883
9530.38956
10002.285
10474.1952
10944.7119
11411.5987
11874.0258
12328.9408
12775.6954
13210.2196
13631.7605
14035.5423
14421.3506
14784.0117
15125.2712
15441.3653
15732.2686
15997.9798
16240.25
16457.147
16650.3259
16820.9885
16967.5265
17091.0753
17190.1432
17268.4437
17319.3785
17351.1883
17359.8713
17348.9241
17318.334
17264.0428
17191.5257
17101.2482
16994.2273
16871.7468
16734.762
16584.641
16422.3874
16249.6145
16067.1315
15875.7923
15676.2723
15469.4425
15255.5842
15035.3385
14809.5135
14578.3061
14342.5152
14102.6038
13859.2233
13612.9323
13364.1611
13113.4576
12861.356
12608.3878
12355.104
12102.1203
11850.1939
11600.3094
11353.7943
11112.5175
10878.7681
10655.6277
10445.7472
10251.1054
10072.2363
9908.16349
9756.49203
9614.12746
9477.8719
9344.72836
9212.17786
9078.28715
8941.69316
8801.52039
8657.36168
8509.17997
8357.18769
8201.95956
8044.19219
7884.45229
7722.9531
7559.10483
7391.74167
7220.14721
7044.56858
6865.89369
6685.18829
6503.47702
6321.69043
6140.63812
5960.96768
5783.18182
5607.67907
5434.73791
5264.54456
5097.30105
4933.14746
4772.17334
4614.43965
4459.98761
4308.84502
4161.03107
4016.55999
3875.44342
3737.69184
3603.31533
3472.32359
3344.72534
3220.52687
3099.72849
2982.308
2868.19774
2757.55052
2650.44553
2546.70666
2446.30321
2349.21214
2255.40059
2164.8275
2077.44525
1993.20353
1912.04847
1833.91888
1758.74351
1686.45308
1617.00502
1550.31805
1486.36666
1424.99684
1366.48152
1310.96802
1258.57842
1211.79789
1167.08112
1130.60383
1097.7437
1070.93049
1058.52498
1035.73554
1037.94002
1028.49198
1027.77927
1033.15701
1017.24345
1025.70899
1004.44959
997.69448
989.478351
968.489
968.65762
950.611608
951.005566
942.888982
930.342086
925.533029
921.903962
912.789778
891.13492
867.719622
836.588417
798.137528
755.425074
708.975024
662.872523
618.562379
578.431023
544.174392
515.557087
491.584317
470.637343
451.038929
431.650234
412.14643
392.842078
374.99419
362.032077
343.719308
325.917333
309.689459
294.914361
281.495783
269.449492
258.815897
249.60423
241.767725
235.188745
229.663262
224.883787
220.427461
215.766569
210.329105
203.639151
195.63354
188.166026
175.690615
163.734951
152.215344
141.412514
131.576013
122.825524
115.164704
108.51773
102.765153
97.7704465
93.4047651
89.5767861
86.3116151
83.9733485
2347.4443
2320.53875
2287.93584
2256.78402
2225.01994
2196.73772
2168.62019
2144.7417
2121.72468
2104.10705
2088.04628
2078.46726
2071.63867
2072.70043
2077.33961
2087.84017
2105.64976
2130.70293
2163.98901
2203.87878
2253.465
2309.87843
2376.67344
2451.76386
2536.77141
2632.41319
2737.00234
2854.55455
2981.13743
3120.72251
3269.48616
3431.57628
3602.44614
3785.91281
3978.30308
4182.00305
4395.51255
4619.25916
4854.77551
5100.93176
5358.66779
5625.88622
5904.88421
6190.57701
6485.77329
6788.82488
7098.56183
7414.86339
7736.88603
8064.62795
8397.24602
8734.54085
9075.60419
9420.32716
9768.28924
10119.6032
10474.2663
10832.3466
11193.7969
11558.0355
11924.6866
12292.3735
12660.5543
13027.2553
13391.6178
13752.0862
14107.5764
14455.7183
14795.8321
15124.8145
15442.1107
15743.9155
16030.49
16297.4369
16546.8801
16775.1792
16982.9739
17169.8946
17338.0215
17484.0814
17611.392
17719.9975
17807.3921
17875.114
17921.6757
17950.3563
17953.6403
17942.7631
17913.0884
17861.4174
17793.2642
17706.7237
17603.4205
17484.3773
17350.6168
17203.2836
17043.1769
16871.5973
16689.4721
16498.2436
16298.5975
16091.3028
15876.9649
15656.3649
15429.71
15197.6052
14960.7533
14719.3204
14474.0411
14225.35
13973.8199
13719.9635
13464.2192
13207.089
12949.073
12690.684
12432.458
12175.0025
11919.0724
11665.6497
11416.0546
11172.1313
10936.1101
10710.9641
10499.187
10302.5995
10121.6154
9955.18386
9800.94154
9655.82725
9516.71017
9380.66835
9245.24937
9108.57035
8969.30708
8826.61057
8680.08577
8529.70278
8375.68355
8218.57118
8059.0272
7897.58912
7734.4244
7568.93295
7400.01012
7227.01802
7050.23151
6870.52236
6688.93052
6506.45623
6324.00865
6142.38106
5962.20689
5783.978
5608.08519
5434.79922
5264.29975
5096.78932
4932.40286
4771.22643
4613.31845
4458.71794
4307.4507
4159.53407
4014.9805
3873.79995
3736.00128
3601.593
3470.58325
3342.97928
3218.78597
3098.00228
2980.60449
2866.51927
2755.90887
2648.85096
2545.15622
2444.79977
2347.75813
2253.99791
2163.47776
2076.14905
1991.95984
1910.85643
1832.77978
1757.65872
1685.41841
1616.01383
1549.37121
1485.47623
1424.15745
1365.67568
1310.19301
1257.84066
1211.35822
1166.60657
1130.20294
1097.26814
1070.33775
1059.2647
1035.66754
1038.61124
1028.3857
1027.51527
1034.21356
1017.22742
1026.49882
1004.1605
997.975207
990.536898
968.546773
968.913758
949.809575
951.237076
943.387155
930.463994
925.68867
922.353171
913.298548
891.483489
868.44707
837.184411
798.437614
755.81925
709.377154
663.163758
618.60564
578.222934
543.811217
515.082386
491.021638
470.032926
450.439659
431.077705
411.609755
392.344563
374.531938
361.804853
343.353312
325.573295
309.39335
294.653847
281.259549
269.230662
258.609709
249.406525
241.574439
234.995903
229.467199
224.681541
220.217339
215.548823
210.10646
203.416521
195.412785
188.057424
175.47803
163.572363
152.083574
141.305184
131.488917
122.754859
115.107039
108.470105
102.725127
97.7360853
93.3745718
89.5496287
86.2866429
83.9498825
5476.00341
5572.05582
5599.65615
5615.3304
5626.7522
5638.73684
5655.44018
5680.26156
5716.07728
5766.47164
5829.63504
5911.45639
6006.21196
6119.30991
6246.16456
6388.62834
6544.72658
6712.98878
6893.35103
7081.42946
7279.36786
7482.95219
7694.87976
7911.72233
8136.04125
8369.52192
8605.66053
8851.56658
9098.4797
9349.61903
9601.6458
9856.25928
10109.7243
10365.4323
10620.7054
10878.6742
11137.9668
11400.9456
11666.9959
11936.5361
12209.8006
12485.29
12765.3395
13045.1816
13328.3081
13612.5053
13896.501
14180.079
14461.6201
14740.7949
15016.0772
15287.4147
15553.3567
15814.2793
16069.4107
16319.0086
16563.0778
16801.2757
17033.587
17259.1657
17478.2119
17689.2063
17893.3147
18087.3874
18273.2359
18450.2613
18616.7462
18772.202
18916.7742
19049.2027
19169.8627
19276.9027
19371.8311
19452.1222
19520.4937
19574.3301
19615.4457
19643.2522
19660.3773
19660.94
19653.4849
19633.5586
19597.5245
19548.7416
19485.4175
19409.4294
19317.2155
19212.2277
19094.6648
18962.7141
18818.2328
18661.0776
18491.9193
18311.4991
18120.6334
17920.1375
17710.5057
17492.9406
17268.1904
17037.2911
16800.7281
16559.095
16312.8447
16062.5632
15808.3197
15550.6107
15289.9355
15026.4151
14760.6133
14492.9155
14223.7336
13953.5311
13682.6956
13411.6441
13140.8191
12870.6918
12601.7647
12334.6263
12070.024
11808.9284
11552.6371
11302.9298
11061.9013
10832.2829
10616.2405
10415.2651
10229.5272
10057.8387
9897.88576
9746.70992
9601.30621
9458.91522
9317.22546
9174.45873
9029.37352
8881.17405
8729.49164
8574.31543
8415.87035
8254.63526
8091.20281
7926.04436
7759.2331
7590.15981
7417.85692
7241.84374
7062.44415
6880.49419
6696.97965
6512.849
6328.96591
6146.08868
5964.82025
5785.62911
5608.8894
5434.85491
5263.69069
5095.60182
4930.71063
4769.09598
4610.81079
4455.88926
4304.35283
4156.21479
4011.48376
3870.16603
3732.26691
3597.79143
3466.74444
3339.12994
3214.94975
3094.19988
2976.85336
2862.82383
2752.29548
2645.34277
2541.74484
2441.49215
2344.55986
2250.91327
2160.50931
2073.29694
1989.22328
1908.2365
1830.27789
1755.27074
1683.13415
1613.83096
1547.30005
1483.52703
1422.32296
1363.86947
1308.48358
1256.23686
1210.43307
1165.44225
1128.99281
1096.05542
1068.86953
1061.06566
1034.53895
1038.92742
1027.51172
1026.5121
1036.40159
1014.70427
1026.61304
1002.80117
998.497805
992.682452
966.043409
968.426072
947.609171
951.788966
943.798488
929.23302
925.83159
917.823997
911.613021
891.920616
869.730654
838.490027
798.987271
756.549054
710.118691
663.782111
618.683689
577.709822
542.959607
514.011094
489.779855
468.712551
449.137113
429.836227
410.446878
391.265907
373.531342
361.314817
342.548538
324.823062
308.748385
294.08548
280.743268
268.751887
258.158361
248.973744
241.151566
234.574505
229.039547
224.241428
219.761255
215.077321
209.625217
202.935753
194.934279
187.155613
175.005283
163.21938
151.796318
141.070516
131.298047
122.599694
114.980191
108.365185
102.636866
97.6602873
93.3079588
89.4897278
86.2316228
83.8982128
27625.3516
27423.5985
26931.5122
26194.2177
25381.9883
24606.032
23886.6764
23259.1726
22719.6822
22264.687
21883.7098
21583.7908
21328.9111
21126.3164
20953.32
20811.4265
20691.6254
20590.6965
20504.5959
20431.8191
20376.5885
20335.5541
20309.9088
20305.3633
20310.9626
20328.3165
20361.7043
20410.3749
20465.3902
20532.1027
20606.9593
20692.0259
20784.9687
20889.5406
21004.0034
21130.9761
21267.9504
21415.4471
21571.4259
21734.3893
21902.9822
22074.8802
22251.8412
22428.0559
22605.2305
22779.4348
22948.2878
23110.9684
23265.7564
23412.9603
23551.268
23682.1688
23804.5369
23919.9898
24026.5058
24125.5181
24215.8956
24296.5576
24367.0913
24426.1301
24473.424
24506.6003
24527.9383
24528.5386
24519.7411
24495.8522
24452.1953
24392.8159
24318.1617
24228.062
24123.8281
24005.3674
23875.7124
23734.2988
23584.2748
23424.995
23259.3642
23087.321
22911.0994
22727.8748
22540.4729
22347.9924
22148.3731
21942.5594
21729.4669
21510.2961
21283.4676
21050.1203
20810.9522
20565.3291
20313.7795
20056.4216
19793.5122
19525.4297
19252.7047
18975.7063
18694.6015
18410.5765
18124.0489
17835.3943
17545.0219
17253.2684
16960.3639
16666.6169
16371.9474
16076.6103
15780.8967
15484.8696
15188.8227
14893.0471
14597.8309
14303.4993
14010.3521
13718.7097
13428.9375
13141.4461
12856.687
12575.2183
12297.7695
12025.2803
11758.9949
11500.5752
11251.8953
11015.3248
10792.5693
10584.6723
10391.4845
10211.6605
10042.9385
9882.53886
9727.63253
9575.68329
9424.58261
9272.69637
9118.90058
8962.47243
8803.08483
8640.74968
8475.6585
8308.21469
8138.92962
7968.15971
7795.85792
7621.43738
7444.13491
7263.66874
7080.41111
6895.14395
6708.77689
6522.18504
6336.16715
6151.43049
5968.53339
5787.91036
5609.91084
5434.76318
5262.60984
5093.6627
4928.02256
4765.75819
4606.91439
4451.51819
4299.58447
4151.12047
4006.12905
3864.61101
3726.56634
3591.99493
3460.89662
3333.27066
3209.11422
3088.41892
2971.1532
2857.20929
2746.83947
2640.01838
2536.56675
2436.47243
2339.70709
2246.23387
2156.00642
2068.97011
1985.07257
1904.26546
1826.48713
1751.64918
1679.6666
1610.52546
1544.17196
1480.57844
1419.5282
1361.12608
1305.90386
1253.7663
1209.22782
1163.635
1127.22535
1093.97206
1066.26229
1064.76652
1032.34892
1040.70582
1025.59399
1023.58797
1041.7263
1009.42506
1029.53902
999.076375
998.234835
997.891067
961.75543
969.334025
941.323768
951.311719
945.132429
926.976135
925.851127
911.139064
909.012524
892.03281
871.102012
839.447978
798.300184
756.578263
710.654811
664.386839
618.519218
576.663489
541.511732
512.328011
487.873328
466.696808
447.161867
427.96469
408.700501
389.649808
372.029262
360.608351
341.316351
323.694744
307.781117
293.231302
279.965705
268.029881
257.477297
248.320614
240.513586
233.939237
228.395636
223.5798
219.076822
214.370929
208.905168
202.21701
194.21476
185.868675
174.325089
162.692042
151.364456
140.716758
131.009747
122.364928
114.787972
108.205981
102.502818
97.5450996
93.2066927
89.3986598
86.1480209
83.8197192
124128.347
126327.964
117125.101
103111.855
91661.4758
82429.0078
74855.4868
68637.8387
63482.8975
59184.9116
55563.4374
52521.1231
49901.3736
47689.3705
45773.4542
44145.0918
42745.7573
41538.687
40501.3826
39607.3277
38839.3984
38178.9051
37617.1341
37138.2026
36734.1787
36384.4334
36083.0068
35807.3946
35558.0946
35335.0945
35135.2406
34958.9809
34803.175
34669.2523
34552.2233
34450.0219
34357.1774
34273.3265
34196.9005
34127.6865
34066.233
34010.9935
33963.5049
33915.5412
33865.5211
33807.6221
33739.4395
33661.8621
33575.7702
33483.5602
33385.8466
33284.8913
33179.5957
33071.465
32957.0769
32839.4852
32714.8345
32583.0654
32444.1665
32296.545
32138.5543
31968.1282
31784.244
31582.8778
31365.8509
31130.9795
30877.3353
30604.6064
30314.0519
30005.7213
29681.4671
29342.2596
28992.3678
28632.0355
28264.6359
27891.6045
27516.1136
27138.8372
26761.3745
26382.4881
26003.3956
25623.6807
25243.0606
24861.9819
24479.8382
24097.8621
23715.5644
23333.8717
22953.2294
22573.6946
22195.2857
21818.1482
21442.3593
21068.0186
20695.412
20324.4704
19955.21
19588.9862
19225.3614
18864.4684
18506.5796
18151.7358
17799.9123
17451.1143
17105.1157
16761.8449
16421.4232
16083.8
15749.0109
15417.2003
15088.5186
14763.1425
14441.2501
14123.0552
13808.8363
13498.9289
13193.7167
12893.7148
12599.6152
12312.2912
12032.8864
11762.8755
11503.8238
11257.6391
11025.4826
10807.8908
10604.3672
10413.4196
10232.8577
10060.1149
9892.60504
9728.04487
9564.57274
9400.72682
9235.52245
9068.32967
8898.8684
8727.14464
8553.29856
8377.6651
8200.64479
8022.44355
7842.90575
7661.52542
7477.78811
7291.6065
7103.3839
6913.83379
6723.77255
6533.98676
6345.19597
6158.04203
5973.0271
5790.54279
5610.89399
5434.29602
5260.87435
5090.81643
4924.20673
4761.10243
4601.5378
4445.53042
4293.0866
4144.20559
3998.88274
3857.11161
3718.88526
3584.19682
3453.03964
3325.40666
3201.28901
3080.67267
2963.52057
2849.69232
2739.54901
2632.89645
2529.64286
2429.76206
2333.22134
2239.9797
2149.9866
2063.18653
1979.52909
1898.96267
1821.41251
1746.78813
1675.02611
1606.11781
1539.9903
1476.53608
1415.63465
1357.43627
1302.3777
1250.37792
1204.14525
1159.94344
1121.67516
1089.25196
1060.47507
1051.30635
1026.75362
1026.70712
1015.25287
1008.2317
1019.76811
998.511495
1008.24913
983.34945
976.58148
973.840813
947.616527
946.889925
922.343259
925.917388
922.969936
909.330087
903.281231
888.884126
885.97043
873.055502
853.223598
821.274557
781.951382
742.413229
699.036742
654.076391
609.939758
570.168247
536.579469
508.374851
484.502851
463.727096
444.452713
425.447944
406.365838
387.495841
370.017698
359.726403
339.62957
322.195296
306.501613
292.099248
278.933345
267.070603
256.572427
247.453222
239.666929
233.097029
227.543037
222.704981
218.173171
213.439531
207.95672
201.271041
193.276287
184.62084
173.462451
161.999404
150.793281
140.24754
130.626568
122.052314
114.531565
107.993347
102.323642
97.3910233
93.0711498
89.2767579
86.0361662
83.7147139
26836.9319
133826.615
152547.315
145572.962
130992.501
117883.238
106771.76
97614.9284
90045.3341
83771.1026
78593.3503
74216.2127
70398.0103
67161.8279
64390.8007
62041.287
60057.8847
58356.8443
56862.1252
55518.8086
54318.2562
53253.9669
52323.1559
51495.5649
50753.87
50067.3473
49408.8781
48765.1904
48150.033
47576.0376
47044.884
46552.2307
46092.6926
45663.1419
45254.9871
44862.3196
44480.4834
44113.8717
43765.8482
43439.0876
43133.4183
42844.4205
42569.1592
42294.9256
42016.3501
41727.3074
41428.4684
41124.5081
40819.5059
40516.8741
40217.2661
39921.379
39627.1191
39334.128
39039.6731
38745.6134
38449.2305
38152.0998
37853.8282
37552.2694
37244.8543
36929.2109
36602.2274
36261.8966
35906.6112
35534.3976
35145.8268
34738.9883
34315.0099
33873.5473
33416.495
32945.3116
32464.5841
31974.2086
31477.9923
30978.2013
30477.3173
29976.504
29476.4219
28976.1585
28477.1525
27978.747
27481.8192
26986.7557
26493.4569
26003.4755
25516.8208
25034.8022
24557.6033
24085.6577
23618.856
23157.4574
22701.5242
22251.0478
21806.2357
21366.8335
20933.0257
20506.0768
20085.0793
19670.2605
19261.6624
18859.1938
18462.6768
18071.9424
17686.6464
17306.5733
16931.7058
16561.8991
16197.0542
15837.2176
15482.4456
15132.8176
14788.4252
14449.4122
14115.9997
13788.4663
13467.1409
13152.5004
12845.1913
12546.0097
12255.9932
11976.4447
11708.6749
11454.2493
11213.949
10987.9806
10775.6296
10575.3279
10384.9507
10202.0854
10024.327
9849.57776
9676.14783
9502.70314
9328.35816
9152.54632
8975.00438
8795.72436
8614.81675
8432.55914
8249.26226
8065.0312
7879.67549
7692.78454
7504.00563
7313.35186
7121.23154
6928.30635
6735.32458
6543.00752
6352.01594
6162.9415
5976.24367
5792.28118
5611.31918
5433.56909
5259.1478
5088.21079
4920.83504
4757.06844
4596.9368
4440.4501
4287.60774
4138.40256
3992.82385
3850.85939
3712.49665
3577.72339
3446.5277
3318.89751
3194.8191
3074.27401
2957.22152
2843.48879
2733.5295
2627.02649
2523.93921
2424.23677
2327.88308
2234.83349
2145.03417
2058.4296
1974.9711
1894.6028
1817.24053
1742.79387
1671.21601
1602.50211
1536.55206
1473.22365
1412.42838
1354.40787
1299.48379
1247.64343
1200.4443
1155.95512
1117.61998
1085.62694
1056.36844
1041.06609
1017.55035
1015.89303
1007.31018
997.711902
1000.38568
982.463774
989.363962
970.306236
959.930176
947.869834
924.600713
924.194147
905.081306
902.95876
894.304839
881.414143
877.435675
866.004585
859.230464
843.433723
824.027396
796.217433
760.376696
721.943747
680.435992
638.933326
598.66711
561.898062
530.440913
503.920262
481.247207
461.138843
442.186578
423.370949
404.447983
385.730607
368.353632
359.085433
338.189596
320.968888
305.459645
291.174481
278.087828
266.283886
255.82984
246.741151
238.971785
232.405577
226.843259
221.987375
217.432541
212.676953
207.181048
200.498474
192.516185
183.757881
172.780839
161.4381
150.327993
139.864668
130.313559
121.79668
114.321682
107.819116
102.176645
97.2644419
92.9596752
89.1764332
85.9440478
83.6281781
2938.66592
1355.56025
713.101267
501.852371
451.111004
459.265343
480.499481
530.888884
567.193931
581.739304
602.392039
647.440509
679.013424
687.727006
697.358652
725.996733
748.584591
754.195274
762.827545
787.090984
801.414522
804.265194
811.303755
832.054797
843.646472
845.636442
847.393291
851.828397
865.132563
884.766294
894.825846
900.022077
911.997874
926.753925
938.474655
960.888525
998.060866
1100.50409
1208.53046
1817.98354
524.52835
538.67914
490.774391
495.074678
537.902474
630.950937
737.776429
863.178367
962.523147
1028.01209
1097.3671
1193.27675
1266.1704
1303.18933
1340.6468
1401.72278
1450.85289
1474.29263
1502.99081
1550.64831
1581.96889
1596.42859
1618.496
1656.8639
1680.57857
1691.06091
1698.8029
1711.81343
1737.53158
1771.50895
1787.65566
1796.95516
1811.66441
1823.19833
1819.68199
1809.92209
1782.77981
1734.16294
1582.95461
1144.84944
181.275237
226.2755
239.153817
250.349512
262.09205
282.355202
313.280366
350.675985
387.768129
422.643064
457.764073
493.105503
523.893525
548.825681
571.988107
595.476322
616.009321
632.495886
648.254566
664.803182
678.381547
689.358314
700.413046
712.808117
722.80573
730.827262
736.700607
743.926821
752.79798
763.692291
770.854669
776.735203
782.41099
785.022222
782.551199
774.888492
756.769236
719.97364
668.540078
550.947771
145.563404
157.417846
170.436839
179.759742
186.006627
191.354093
197.953247
206.42402
216.336339
227.256084
239.083189
251.55453
263.533022
274.676892
285.269811
295.611545
305.03384
313.510934
321.456815
329.18186
336.038943
342.516175
348.701409
354.80239
360.516905
365.859169
370.727435
376.088403
381.699623
387.527865
393.050996
399.186592
405.005196
410.309825
415.037451
420.655488
427.534203
434.461774
445.105538
469.583128
147.922008
167.236885
184.986178
195.147713
201.223861
205.902203
212.656116
222.486297
235.326522
249.551466
264.825238
282.064846
300.110531
317.14754
332.985085
349.114903
364.79107
379.413016
394.120611
408.750983
421.638905
435.156327
448.5889
460.986213
474.112397
486.177877
496.907443
509.020629
522.144535
534.667989
548.124304
564.474841
578.922519
592.009686
604.454186
625.922541
651.328592
694.674293
747.722317
870.557056
204.328613
267.490346
291.932195
296.595508
304.943366
324.814877
359.826483
403.823623
456.527397
506.962548
549.421184
595.37485
651.274067
701.094187
736.610595
774.912495
819.273934
854.597228
893.067365
937.081007
967.719919
1001.24155
1040.70809
1071.47507
1108.25703
1140.11074
1161.80113
1188.86488
1224.77769
1253.65478
1287.8912
1336.47415
1376.15122
1398.78563
1421.16035
1463.69453
1532.17149
1602.6677
1670.28296
1839.79069
639.567139
627.013739
536.742002
496.923706
528.260058
607.664273
691.803049
773.991577
893.294492
981.673608
1022.30022
1076.18813
1193.21732
1276.86925
1304.94398
1347.9569
1425.06204
1467.36851
1522.5416
1597.69072
1630.83675
1674.25574
1743.25273
1783.69927
1842.19179
1881.70643
1900.60315
1939.9809
2002.40799
2039.65498
2098.44764
2193.88619
2240.54608
2247.66663
2260.08313
2320.60699
2393.29267
2398.20266
2342.04232
2500.54613
3053.44225
1284.15041
604.360214
376.117281
321.561648
326.198725
341.306116
362.946402
411.357862
445.671279
456.260974
472.809435
527.115142
565.82863
574.025481
588.715585
626.361865
644.005546
667.987793
705.640937
719.652778
737.377586
773.078095
791.734031
821.551104
841.257134
847.996602
864.356681
898.1647
915.575471
943.825414
998.15098
1025.02549
1025.95509
1026.92583
1055.75495
1097.9663
1097.76084
1057.72653
1085.98096
11442.4945
37512.8032
66643.4472
85033.0985
97043.0812
101903.905
102488.376
101729.559
99834.7338
97104.9969
94116.6016
90802.8703
87410.4126
84332.6645
81581.1558
79193.5886
77112.2771
75228.7263
73442.9838
71732.4471
70145.9551
68716.5909
67441.0332
66268.1934
65170.8373
64103.2827
63029.3925
61957.2751
60926.9179
59965.2998
59072.3249
58232.913
57438.0275
56679.7588
55946.3189
55229.3177
54528.1117
53855.0408
53219.1159
52623.6439
52064.7375
51532.8008
51019.0939
50505.8808
49985.4609
49452.8514
48913.5611
48376.8219
47849.5044
47334.852
46832.4232
46340.6458
45856.2576
45376.9286
44901.1588
44428.723
43961.7087
43500.9581
43045.3859
42592.6504
42139.2662
41682.0677
41216.5606
40741.8726
40253.863
39751.0556
39234.749
38701.6705
38152.7955
37587.3025
37007.1071
36414.1172
35812.9481
35203.0586
34588.8427
33972.9613
33356.969
32742.5295
32129.0887
31516.0098
30905.202
30295.6411
29689.343
29086.5948
28487.8837
27895.1065
27308.7591
26730.592
26160.491
25599.2813
25046.7632
24503.3635
23969.1449
23444.0321
22928.1937
22421.2439
21923.6495
21436.2951
20958.3655
20489.8084
20030.5577
19580.4154
19139.0699
18706.1957
18281.3351
17864.1536
17454.5045
17052.1479
16656.8658
16268.6163
15887.3662
15513.1018
15145.8326
14785.6358
14432.6777
14087.1796
13749.4137
13419.8155
13098.9793
12787.6126
12486.637
12197.1735
11920.2714
11657.1635
11408.2563
11173.4481
10951.8208
10741.7418
10541.157
10347.8054
10159.4622
9974.21303
9790.53521
9607.22267
9423.48611
9238.81548
9052.96217
8865.90441
8677.72177
8488.63182
8298.85494
8108.40499
7917.0746
7724.5545
7530.64074
7335.43242
7139.33774
6942.96653
6746.99946
6552.09266
6358.84818
6167.80703
5979.38563
5793.9095
5611.60417
5432.67562
5257.22996
5085.39398
4917.23547
4752.79268
4592.08273
4435.10777
4281.86008
4132.32592
3986.48834
3844.32919
3705.83018
3570.97352
3439.74195
3312.11821
3188.08363
3067.61517
2950.66881
2837.06568
2727.26887
2620.92332
2518.01011
2418.49393
2322.33515
2229.4854
2139.88796
2053.48744
1970.23591
1890.07233
1812.90459
1738.64519
1667.26118
1598.7473
1532.97562
1469.78065
1409.11381
1351.27099
1296.49462
1244.78356
1196.82641
1152.03461
1113.61745
1082.11309
1051.923
1032.08158
1008.43015
1006.18647
999.677883
986.94123
983.331395
966.079925
972.739497
957.315715
943.994235
924.597976
902.322514
903.863509
888.249129
882.335204
868.435651
855.765254
854.07056
844.934346
835.139507
816.721686
797.872603
773.701304
740.849164
703.55794
663.758883
625.293398
588.387528
554.225272
524.64788
499.618375
478.0019
458.492713
439.846261
421.219835
402.459892
383.899739
366.62507
356.899283
336.669988
319.694597
304.377263
290.211839
277.206142
265.462399
255.053473
245.995799
238.243382
231.680508
226.109283
221.234984
216.656779
211.87938
206.371216
199.693508
191.730205
182.895922
172.08034
160.85807
149.846991
139.469073
129.990308
121.532732
114.104936
107.639077
102.02458
97.1333153
92.8440428
89.0722521
85.8483187
83.5382015
1302.63272
2912.28243
6486.19309
11118.5053
16376.8079
23749.9514
33264.8675
43964.5473
54139.3829
63377.4569
70620.0817
75536.0554
79167.3621
82132.268
84518.4412
86513.4356
87831.4059
88278.3896
88065.3657
87479.9751
86733.8586
85982.4473
85173.5051
84210.3519
83090.4455
81806.0513
80351.0525
78849.0548
77431.625
76125.7905
74890.1244
73683.0254
72495.6045
71322.6112
70155.0201
68991.9754
67856.5203
66784.8452
65791.7801
64868.074
63992.3075
63141.6769
62298.2583
61441.9431
60568.3347
59682.6134
58804.7134
57951.5132
57129.9269
56337.0129
55566.441
54811.5498
54068.0071
53331.9431
52605.6454
51888.1957
51190.542
50511.7089
49848.896
49197.8624
48553.6435
47910.5494
47265.036
46613.8793
45955.5748
45288.0233
44610.872
43920.6953
43218.1296
42501.5549
41773.2445
41035.573
40292.3251
39543.1816
38793.024
38043.323
37294.057
36547.3199
35799.8506
35051.8762
34306.1766
33560.9335
32819.8659
32082.7179
31351.183
30627.7337
29913.461
29210.6882
28518.7347
27839.1774
27171.6967
26517.1985
25875.702
25247.2476
24632.0919
24029.8461
23441.7752
22867.8001
22307.5223
21760.8046
21227.3741
20706.9659
20199.135
19703.4014
19219.174
18746.0365
18283.6989
17831.795
17389.9872
16958.1529
16536.1471
16123.8395
15721.1392
15328.0437
14944.6472
14571.082
14207.5268
13854.3422
13512.0117
13181.0671
12862.2216
12556.2962
12263.9449
11985.9346
11722.1845
11472.2047
11234.8344
11008.3904
10790.9394
10580.4347
10374.9119
10172.7165
9972.55421
9773.41445
9574.62155
9375.72934
9176.51345
8976.92657
8776.9939
8576.83537
8376.54103
8176.04934
7975.19852
7773.82806
7571.8916
7369.56379
7167.23564
6965.44029
6764.7602
6565.75504
6368.9397
6174.77821
5983.62156
5795.73828
5611.31305
5430.52062
5253.45014
5080.194
4910.80188
4745.2962
4583.67999
4425.94281
4272.06549
4122.02368
3975.79044
3833.33806
3694.63906
3559.66675
3428.39525
3300.79901
3176.8515
3056.52245
2939.76374
2826.42868
2716.8575
2610.78158
2508.16304
2408.95984
2313.12644
2220.61004
2131.35142
2045.29275
1962.381
1882.54972
1805.70831
1731.77569
1660.71355
1592.50012
1526.99363
1464.07057
1403.68129
1346.08209
1291.39977
1239.5048
1191.3271
1146.14771
1107.67911
1074.18655
1041.64627
1020.85211
995.1078
992.646028
980.553783
964.988994
962.054533
942.273178
949.658627
927.952881
912.623018
896.166072
873.701444
874.903058
853.710567
848.693795
836.589509
823.901964
820.983447
808.519284
800.535613
783.777634
765.672013
742.205219
711.693248
678.44075
642.542929
607.520467
574.057471
543.382106
516.575184
493.451627
473.085293
454.309406
436.082392
417.740539
399.236416
380.926216
363.800649
352.183918
334.074413
317.618768
302.616039
288.638575
275.761503
264.115606
253.781358
244.775892
237.052882
230.49717
224.913016
220.010081
215.394876
210.582606
205.054564
198.384501
190.453293
181.577852
170.956856
159.912411
149.057864
138.817607
129.456349
121.09565
113.745353
107.339975
101.771691
96.915162
92.6517085
88.8990079
85.6891285
83.3886134
562.636005
644.663669
878.14656
1358.60629
1978.02176
2971.19828
4552.31136
7175.21773
11042.1918
16598.9453
23824.0079
32655.6903