/*--------------------------------*- C++ -*----------------------------------*\
  =========                 |
  \\      /  F ield         | OpenFOAM: The Open Source CFD Toolbox
   \\    /   O peration     | Website:  https://openfoam.org
    \\  /    A nd           | Version:  6
     \\/     M anipulation  |
\*---------------------------------------------------------------------------*/
FoamFile
{
    version     2.0;
    format      ascii;
    class       volScalarField;
    location    "25000";
    object      H;
}
// * * * * * * * * * * * * * * * * * * * * * * * * * * * * * * * * * * * * * //

dimensions      [0 0 0 0 0 0 0];

internalField   nonuniform List<scalar> 
44870
(
1.05481557e-58
2.03768092e-58
2.92497265e-58
2.21916939e-58
2.91510909e-58
2.17497191e-58
2.20956493e-58
2.29447973e-58
2.35698005e-58
2.32844903e-58
3.62239425e-58
3.82840097e-58
2.7611179e-58
3.05837862e-58
2.59273975e-58
2.40800173e-58
2.39774591e-58
3.93151236e-58
3.29068254e-58
4.32576312e-58
3.55845219e-58
3.35748603e-58
4.2911118e-58
6.1921293e-58
8.57273106e-56
2.42221195e-53
7.05505285e-51
2.1069234e-48
6.44840204e-46
2.01903893e-43
6.45988355e-41
2.10595537e-38
6.97755888e-36
2.33730556e-33
7.8697118e-31
2.63465056e-28
8.64067921e-26
2.70162663e-23
7.64328526e-21
1.78158017e-18
1.11044094e-58
1.63809055e-58
2.84228169e-58
2.14323761e-58
2.84255983e-58
2.94794333e-58
2.58813398e-58
2.57600836e-58
2.44491094e-58
2.80829322e-58
2.82262635e-58
2.37705356e-58
2.81312299e-58
2.53279024e-58
2.66456074e-58
2.33641884e-58
2.59500423e-58
2.46010941e-58
4.00506472e-58
4.09102916e-58
3.34781697e-58
2.29726192e-58
1.89385081e-58
2.32667976e-58
1.92075168e-56
6.37270463e-54
2.25827198e-51
8.3715934e-49
3.24027063e-46
1.30541245e-43
5.46271211e-41
2.36593569e-38
1.057608e-35
4.85273663e-33
2.2729595e-30
1.07537353e-27
5.06988654e-25
2.3279007e-22
9.92405679e-20
3.70379923e-17
6.63222802e-59
2.57452386e-58
1.96217713e-58
1.93830749e-58
3.51061378e-58
3.96210328e-58
3.35341291e-58
2.50944436e-58
2.36984546e-58
2.23080101e-58
1.9345946e-58
3.1487654e-58
3.1978687e-58
3.95489661e-58
3.85142311e-58
4.37579631e-58
4.22814275e-58
3.10302033e-58
4.69534768e-58
3.56496971e-58
2.81098879e-58
2.25958279e-58
1.88926548e-58
2.08599622e-58
7.28678285e-58
1.40957399e-55
6.38693712e-53
3.53307415e-50
2.31081388e-47
1.70956241e-44
1.35456192e-41
1.11807878e-38
9.33720386e-36
7.8321187e-33
6.46512339e-30
5.24869228e-27
4.09320227e-24
3.06612798e-21
2.0904865e-18
1.2913119e-15
1.44808316e-58
1.23130049e-58
1.51415649e-58
1.91903447e-58
1.15892921e-58
1.26506282e-58
1.37039356e-58
9.1269748e-59
1.84451565e-58
1.52191637e-58
4.10408924e-58
4.67152346e-58
3.48748768e-58
1.67518582e-58
8.51786682e-59
1.06227199e-58
7.06716686e-59
2.3120059e-58
3.68119916e-58
2.73704713e-58
1.30528035e-58
4.09895292e-58
1.38706281e-58
5.24080225e-59
2.41633768e-58
7.31318002e-56
7.81167791e-53
8.52957625e-50
9.35891376e-47
1.03021118e-43
1.124239e-40
1.21575671e-37
1.28546794e-34
1.33009932e-31
1.32792594e-28
1.28075535e-25
1.17422188e-22
1.02198534e-19
8.16765125e-17
5.87678681e-14
4.3711207e-58
1.14415104e-58
1.99014014e-58
8.47564799e-59
3.06110435e-59
4.39458748e-58
1.59068766e-58
1.07322978e-58
1.63183115e-58
5.29659693e-58
3.24863146e-58
1.1583818e-58
4.64838623e-58
1.16703697e-58
3.21404683e-59
2.72738175e-59
1.76300588e-59
9.20159584e-60
6.67169475e-59
2.92395512e-59
1.11694938e-59
5.84525921e-60
2.22536189e-58
4.3500456e-58
3.39243414e-57
2.32551835e-54
2.30934803e-51
2.29229759e-48
2.274989e-45
2.25676124e-42
2.23890297e-39
2.22047329e-36
2.20268616e-33
2.18461223e-30
2.16735583e-27
2.15017969e-24
2.13375728e-21
2.117798e-18
2.10229286e-15
2.10051628e-12
1.46581831e-16
3.2907133e-16
4.71614737e-16
5.77365607e-16
6.80791437e-16
8.27460814e-16
1.02835191e-15
1.25826901e-15
1.47448679e-15
1.65487841e-15
1.79711852e-15
1.92919348e-15
2.07114424e-15
2.23952802e-15
2.43247433e-15
2.6455768e-15
2.88605062e-15
3.16871906e-15
3.54243235e-15
4.04217448e-15
4.70643306e-15
5.54579648e-15
6.56924033e-15
7.80525765e-15
9.32484586e-15
1.12715788e-14
1.38248566e-14
1.73342011e-14
2.20012127e-14
2.82756999e-14
3.64235035e-14
4.69066062e-14
6.0468715e-14
7.79408524e-14
1.01222483e-13
1.32220963e-13
1.74480668e-13
2.31203827e-13
3.07220159e-13
4.07053786e-13
5.37389488e-13
7.06566789e-13
9.26815132e-13
1.21493152e-12
1.59666727e-12
2.10287873e-12
2.77346141e-12
3.65638274e-12
4.80819786e-12
6.29731996e-12
8.20915025e-12
1.06580273e-11
1.37981328e-11
1.78431003e-11
2.30756067e-11
2.98637633e-11
3.8658015e-11
4.99981721e-11
6.45108247e-11
8.29296377e-11
1.06127457e-10
1.35161453e-10
1.71351533e-10
2.16320364e-10
2.7215163e-10
3.41392126e-10
4.27419289e-10
5.3447714e-10
6.68237857e-10
8.35744068e-10
1.04586428e-09
1.30906533e-09
1.63688222e-09
2.0423705e-09
2.53702891e-09
3.13468661e-09
3.84358075e-09
4.67409067e-09
5.63417609e-09
6.73242038e-09
7.97793085e-09
9.38193112e-09
1.09599042e-08
1.27308344e-08
1.47186796e-08
1.69506856e-08
1.94632534e-08
2.22952795e-08
2.54962747e-08
2.91278143e-08
3.32629793e-08
3.79928649e-08
4.3421168e-08
4.96684037e-08
5.68720968e-08
6.51881448e-08
7.4792042e-08
8.58847426e-08
9.86978757e-08
1.13507978e-07
1.30640713e-07
1.50478652e-07
1.73474205e-07
2.00177501e-07
2.31233281e-07
2.67446799e-07
3.0981021e-07
3.59514282e-07
4.18108792e-07
4.87510783e-07
5.70196554e-07
6.69321604e-07
7.88937941e-07
9.34383266e-07
1.11266299e-06
1.33299838e-06
1.60759238e-06
1.95260254e-06
2.38927857e-06
2.94504596e-06
3.65402955e-06
4.55564454e-06
5.68909743e-06
7.08205879e-06
8.73552365e-06
1.06133506e-05
1.2645497e-05
1.4745157e-05
1.68325351e-05
1.88543455e-05
2.07914704e-05
2.26568432e-05
2.44951188e-05
2.63764024e-05
2.83883219e-05
3.06438456e-05
3.32761823e-05
3.64578839e-05
4.04184546e-05
4.5420731e-05
5.21956757e-05
6.14070084e-05
7.36595968e-05
8.89336445e-05
0.000105685226
0.000121405181
0.000134275163
0.000143554933
0.000149166459
0.000151378304
0.00015062111
0.000147396751
0.000142214708
0.000135532949
0.000127763128
0.000119268476
0.000110362042
0.000101308307
9.23233149e-05
8.35768888e-05
7.51978867e-05
6.72793219e-05
5.98834918e-05
5.30469415e-05
4.67851222e-05
4.10966556e-05
3.59671522e-05
3.1372537e-05
2.72819115e-05
2.36599569e-05
2.04688973e-05
1.76700563e-05
1.52250417e-05
1.30967613e-05
1.12505918e-05
9.65431238e-06
8.27721854e-06
7.09176053e-06
6.07323509e-06
5.19957539e-06
4.45121091e-06
3.81088813e-06
3.26348319e-06
2.79582593e-06
2.39650082e-06
2.05561269e-06
1.76459643e-06
1.51610569e-06
1.30390313e-06
1.12264871e-06
9.67608106e-07
8.35069137e-07
7.21482491e-07
6.24250537e-07
5.40934356e-07
4.6932022e-07
4.07584765e-07
3.54418013e-07
3.08736324e-07
2.69338936e-07
2.35254568e-07
2.05627162e-07
1.80000736e-07
1.57833344e-07
1.38569304e-07
1.217994e-07
1.07119005e-07
9.44139586e-08
8.33617639e-08
7.36707285e-08
6.51426498e-08
5.76336781e-08
5.10694906e-08
4.52971076e-08
4.02065366e-08
3.5693876e-08
3.1704884e-08
2.81786638e-08
2.50524931e-08
2.23120624e-08
1.98702503e-08
1.77071293e-08
1.57966383e-08
1.41032652e-08
1.26010474e-08
1.12681127e-08
1.00854029e-08
9.03418099e-09
8.09676664e-09
7.25924768e-09
6.51078568e-09
5.84221872e-09
5.24552302e-09
4.71350348e-09
4.23949249e-09
3.81719512e-09
3.44045634e-09
3.10301672e-09
2.80283232e-09
2.53496257e-09
2.29519695e-09
2.08010742e-09
1.88675852e-09
1.71261138e-09
1.55546013e-09
1.4133818e-09
1.2846981e-09
1.16794828e-09
1.0618704e-09
9.65388629e-10
8.77603913e-10
7.9778315e-10
7.25339445e-10
6.59794974e-10
6.00701873e-10
5.47356466e-10
5.00336409e-10
4.58423316e-10
4.21115908e-10
3.87899649e-10
3.58257294e-10
3.31700867e-10
3.07789125e-10
2.86138682e-10
2.66434644e-10
2.48447736e-10
2.32074997e-10
2.174398e-10
2.05142165e-10
1.96865803e-10
4.23459905e-15
7.12630345e-15
8.06234294e-15
8.54372379e-15
9.79948722e-15
1.27061409e-14
1.65975505e-14
2.02636378e-14
2.28196783e-14
2.43716284e-14
2.55415933e-14
2.7277117e-14
2.98328799e-14
3.31148488e-14
3.67302072e-14
4.04999542e-14
4.473398e-14
5.00743352e-14
5.77527616e-14
6.82707791e-14
8.17632439e-14
9.77797157e-14
1.16063422e-13
1.37483716e-13
1.63451372e-13
1.97750319e-13
2.43938435e-13
3.07040538e-13
3.8916972e-13
4.93189797e-13
6.20074782e-13
7.73874162e-13
9.61561598e-13
1.19537302e-12
1.49469492e-12
1.88168109e-12
2.38294442e-12
3.0171277e-12
3.80450366e-12
4.75727201e-12
5.90330972e-12
7.27788681e-12
8.94771309e-12
1.09978819e-11
1.3555185e-11
1.67471484e-11
2.07083391e-11
2.5564443e-11
3.14364407e-11
3.84650452e-11
4.68443732e-11
5.68654993e-11
6.89426334e-11
8.36352279e-11
1.01626888e-10
1.23700269e-10
1.50676888e-10
1.83410774e-10
2.22798674e-10
2.69876867e-10
3.2591641e-10
3.92552124e-10
4.71850563e-10
5.66379257e-10
6.79294563e-10
8.14293569e-10
9.76204143e-10
1.1708829e-09
1.4058941e-09
1.69016373e-09
2.03427508e-09
2.44971233e-09
2.9479535e-09
3.54095204e-09
4.23773126e-09
5.04990654e-09
5.98292077e-09
7.04681957e-09
8.25078504e-09
9.60732254e-09
1.11304784e-08
1.28380453e-08
1.4752339e-08
1.68980044e-08
1.93033818e-08
2.19993728e-08
2.50255818e-08
2.8424586e-08
3.22506552e-08
3.65739109e-08
4.14761712e-08
4.70584275e-08
5.34375782e-08
6.07472867e-08
6.91385685e-08
7.87806951e-08
8.98626775e-08
1.02600264e-07
1.17242304e-07
1.34088113e-07
1.53487185e-07
1.75850634e-07
2.0166656e-07
2.31528543e-07
2.66129183e-07
3.06339212e-07
3.53221656e-07
4.08054457e-07
4.72499609e-07
5.48606233e-07
6.38996245e-07
7.47007519e-07
8.76936847e-07
1.03439449e-06
1.22670677e-06
1.46346935e-06
1.75730781e-06
2.12482335e-06
2.58765944e-06
3.17343523e-06
3.91605106e-06
4.85393532e-06
6.02419664e-06
7.45127454e-06
9.13273229e-06
1.10302809e-05
1.3074342e-05
1.51805565e-05
1.72730832e-05
1.93026563e-05
2.12536713e-05
2.31413551e-05
2.50131271e-05
2.69413817e-05
2.90145682e-05
3.13486222e-05
3.40773607e-05
3.73760872e-05
4.1478259e-05
4.66973696e-05
5.37208259e-05
6.31884781e-05
7.56449313e-05
9.09533921e-05
0.000107480315
0.000122809755
0.000135254734
0.000144146964
0.000149434486
0.00015138885
0.000150436933
0.000147072617
0.000141798206
0.000135060154
0.000127261927
0.000118760375
0.000109863293
0.000100830864
9.1875353e-05
8.31634685e-05
7.4821625e-05
6.69409558e-05
5.95823632e-05
5.27814012e-05
4.65528608e-05
4.08949664e-05
3.57931367e-05
3.12232592e-05
2.71545091e-05
2.35517182e-05
2.03773091e-05
1.75928311e-05
1.51601248e-05
1.3042316e-05
1.12050414e-05
9.61631927e-06
8.2455493e-06
7.06538898e-06
6.05129393e-06
5.18133145e-06
4.43604741e-06
3.79828636e-06
3.25300606e-06
2.78710878e-06
2.38924539e-06
2.04957342e-06
1.75956214e-06
1.51189509e-06
1.30037536e-06
1.11970247e-06
9.65124187e-07
8.32996638e-07
7.19722292e-07
6.22762454e-07
5.39695963e-07
4.68285393e-07
4.06697562e-07
3.53642194e-07
3.08080895e-07
2.6879943e-07
2.34803151e-07
2.05228881e-07
1.79643104e-07
1.57533118e-07
1.38325639e-07
1.21592108e-07
1.06927207e-07
9.42412313e-08
8.32183406e-08
7.35524724e-08
6.50384654e-08
5.75365152e-08
5.09832605e-08
4.52257111e-08
4.0147197e-08
3.56412985e-08
3.16567384e-08
2.81370123e-08
2.50154667e-08
2.22820465e-08
1.98434858e-08
1.76831287e-08
1.57758358e-08
1.40855183e-08
1.25855974e-08
1.12543547e-08
1.0073097e-08
9.0232009e-09
8.08689949e-09
7.25026708e-09
6.50256994e-09
5.83472096e-09
5.23870345e-09
4.70731316e-09
4.23388748e-09
3.81214009e-09
3.43592485e-09
3.09888653e-09
2.79918203e-09
2.53171742e-09
2.29230501e-09
2.0775254e-09
1.88444969e-09
1.7105439e-09
1.5536063e-09
1.41171748e-09
1.28320226e-09
1.16660274e-09
1.0606596e-09
9.64299414e-10
8.7662515e-10
7.96905301e-10
7.24554113e-10
6.59094546e-10
6.00079338e-10
5.46778175e-10
4.9985577e-10
4.579922e-10
4.20731302e-10
3.8755666e-10
3.57950567e-10
3.3142542e-10
3.07540544e-10
2.85913125e-10
2.66228832e-10
2.48258972e-10
2.31901026e-10
2.17278603e-10
2.04991514e-10
1.96721704e-10
2.43491654e-13
2.97015623e-13
2.69166262e-13
2.74897773e-13
3.58940028e-13
5.35512881e-13
7.07710612e-13
8.04904117e-13
8.23418236e-13
8.09940759e-13
8.18159176e-13
8.80993718e-13
9.78492793e-13
1.07879771e-12
1.16202411e-12
1.23302257e-12
1.31634925e-12
1.44824224e-12
1.66177919e-12
1.94689002e-12
2.26813247e-12
2.59472019e-12
2.92452456e-12
3.29263067e-12
3.75972719e-12
4.41008407e-12
5.31029888e-12
6.48949935e-12
7.90673622e-12
9.51481e-12
1.12850125e-11
1.32643423e-11
1.55688884e-11
1.83897564e-11
2.19526081e-11
2.64585449e-11
3.20136582e-11
3.85722736e-11
4.60519735e-11
5.4377886e-11
6.36885626e-11
7.42641687e-11
8.66559047e-11
1.0146404e-10
1.19426459e-10
1.41026704e-10
1.66498838e-10
1.95821329e-10
2.28928e-10
2.6600115e-10
3.07693933e-10
3.55243613e-10
4.10395649e-10
4.75214093e-10
5.51728045e-10
6.41605934e-10
7.45957103e-10
8.6553708e-10
1.00114974e-09
1.1542396e-09
1.32720741e-09
1.52363315e-09
1.74792175e-09
2.0053703e-09
2.30155424e-09
2.6426353e-09
3.03669097e-09
3.49292664e-09
4.02270747e-09
4.63818777e-09
5.35195288e-09
6.1750249e-09
7.11559881e-09
8.18054464e-09
9.37242932e-09
1.06994698e-08
1.21654613e-08
1.37858255e-08
1.55791637e-08
1.75718962e-08
1.97929619e-08
2.22754519e-08
2.50545228e-08
2.81638642e-08
3.16371547e-08
3.55100945e-08
3.9826343e-08
4.46383959e-08
5.0012623e-08
5.60366446e-08
6.28172867e-08
7.04828463e-08
7.91798396e-08
8.90724683e-08
1.00342402e-07
1.13188465e-07
1.27829448e-07
1.44514153e-07
1.63531332e-07
1.8523309e-07
2.10022948e-07
2.38379152e-07
2.70873685e-07
3.08200838e-07
3.51164982e-07
4.00785686e-07
4.58289339e-07
5.25160315e-07
6.03308122e-07
6.95083489e-07
8.03433954e-07
9.321315e-07
1.08599162e-06
1.27122904e-06
1.49587802e-06
1.77033389e-06
2.10810881e-06
2.52669984e-06
3.048479e-06
3.70127037e-06
4.51819567e-06
5.53520672e-06
6.78460866e-06
8.28385374e-06
1.00236444e-05
1.19619225e-05
1.40310207e-05
1.61521118e-05
1.82577574e-05
2.03074013e-05
2.22926972e-05
2.42334243e-05
2.61833682e-05
2.82199107e-05
3.04326145e-05
3.29446441e-05
3.58899331e-05
3.94498902e-05
4.38626736e-05
4.95796774e-05
5.71462648e-05
6.71487297e-05
8.00019294e-05
9.53056148e-05
0.000111287264
0.000125749048
0.000137279514
0.000145345487
0.000149944036
0.000151353995
0.000149990785
0.000146332035
0.000140865339
0.000134011193
0.000126155966
0.000117643102
0.000108769131
9.97852534e-05
9.08955099e-05
8.22599837e-05
7.39998772e-05
6.62023138e-05
5.89252212e-05
5.22020441e-05
4.60461736e-05
4.04549963e-05
3.54135325e-05
3.08976016e-05
2.6876549e-05
2.33155398e-05
2.01774337e-05
1.74242732e-05
1.50184075e-05
1.29234346e-05
1.11055587e-05
9.5333383e-06
8.17635853e-06
7.00776022e-06
6.00333799e-06
5.14144905e-06
4.40289072e-06
3.77072371e-06
3.23008901e-06
2.7680442e-06
2.37337418e-06
2.03635085e-06
1.74853591e-06
1.50268689e-06
1.29267144e-06
1.11325287e-06
9.59768388e-07
8.28449865e-07
7.15895607e-07
6.19529154e-07
5.36968535e-07
4.65983974e-07
4.04754824e-07
3.51983736e-07
3.0666443e-07
2.67592827e-07
2.33783184e-07
2.04364486e-07
1.78893247e-07
1.56884308e-07
1.37770773e-07
1.21119615e-07
1.06517328e-07
9.38828852e-08
8.29061363e-08
7.32806407e-08
6.48035512e-08
5.73307996e-08
5.08026015e-08
4.50684046e-08
4.00110317e-08
3.55237217e-08
3.15542001e-08
2.8046207e-08
2.49430331e-08
2.22135134e-08
1.97840572e-08
1.76312212e-08
1.5730389e-08
1.40458683e-08
1.25509306e-08
1.12238631e-08
1.00460153e-08
8.9989199e-09
8.06498806e-09
7.2303801e-09
6.48445559e-09
5.81821331e-09
5.22368499e-09
4.69368455e-09
4.2215597e-09
3.80103079e-09
3.42596288e-09
3.08982038e-09
2.79116679e-09
2.52459277e-09
2.28595554e-09
2.07185632e-09
1.87938054e-09
1.70600498e-09
1.54953682e-09
1.40806432e-09
1.27991918e-09
1.16364975e-09
1.0580025e-09
9.61909151e-10
8.74477132e-10
7.9497846e-10
7.22829928e-10
6.57556302e-10
5.98712104e-10
5.45651075e-10
4.98804566e-10
4.57044472e-10
4.19886007e-10
3.86802971e-10
3.57276703e-10
3.3082039e-10
3.06994595e-10
2.8541783e-10
2.65777042e-10
2.47844719e-10
2.31519301e-10
2.16924935e-10
2.04661019e-10
1.96406199e-10
2.03325951e-11
1.71778112e-11
1.40806862e-11
1.59505352e-11
2.36726509e-11
3.59496151e-11
4.20642319e-11
4.0435441e-11
3.51550985e-11
3.0643136e-11
2.94330098e-11
3.12462352e-11
3.32390516e-11
3.38523048e-11
3.31875324e-11
3.23050248e-11
3.24106012e-11
3.45721047e-11
3.9012329e-11
4.41352572e-11
4.84376845e-11
5.15473672e-11
5.42391297e-11
5.78049269e-11
6.37080632e-11
7.3052143e-11
8.61332698e-11
1.01810345e-10
1.18177156e-10
1.34097109e-10
1.49723601e-10
1.66492755e-10
1.86507276e-10
2.12073797e-10
2.45023487e-10
2.85872332e-10
3.33133237e-10
3.83975761e-10
4.36241842e-10
4.89526178e-10
5.45959957e-10
6.08934823e-10
6.82956201e-10
7.71570462e-10
8.77519816e-10
1.00017145e-09
1.13630115e-09
1.28179418e-09
1.434274e-09
1.59483457e-09
1.76818073e-09
1.96158557e-09
2.18309158e-09
2.43953244e-09
2.73447447e-09
3.06723114e-09
3.4338237e-09
3.82986785e-09
4.25363546e-09
4.70803429e-09
5.2003411e-09
5.74081146e-09
6.33984945e-09
7.00731499e-09
7.75099869e-09
8.57941498e-09
9.50511596e-09
1.05422524e-08
1.17080171e-08
1.30178766e-08
1.44835166e-08
1.61091572e-08
1.78917318e-08
1.98272035e-08
2.19104415e-08
2.41535337e-08
2.65725893e-08
2.92074097e-08
3.21054633e-08
3.53229177e-08
3.89167196e-08
4.29387671e-08
4.7433404e-08
5.24370499e-08
5.79795959e-08
6.40970237e-08
7.08376527e-08
7.82693503e-08
8.64861459e-08
9.56139274e-08
1.05807069e-07
1.17245554e-07
1.30127154e-07
1.4466634e-07
1.61092747e-07
1.79649509e-07
2.00600131e-07
2.2424519e-07
2.50940564e-07
2.81124186e-07
3.15287565e-07
3.54024692e-07
3.98050096e-07
4.4822557e-07
5.05545685e-07
5.712611e-07
6.46878863e-07
7.34230569e-07
8.35611649e-07
9.53848451e-07
1.09243543e-06
1.25579977e-06
1.44955539e-06
1.68084357e-06
1.95874574e-06
2.29478918e-06
2.70369473e-06
3.20407335e-06
3.81899874e-06
4.57597968e-06
5.50621083e-06
6.64115707e-06
8.00551445e-06
9.60665331e-06
1.14268396e-05
1.34207029e-05
1.55256762e-05
1.76713095e-05
1.9802328e-05
2.18907858e-05
2.39384922e-05
2.59705566e-05
2.80516316e-05
3.02664354e-05
3.27038622e-05
3.55007261e-05
3.87867679e-05
4.27526812e-05
4.77643085e-05
5.419726e-05
6.25317189e-05
7.32659285e-05
8.65588099e-05
0.000101641749
0.000116669636
0.00012981685
0.000140016404
0.000146896476
0.000150511086
0.000151149888
0.000149206044
0.000145135049
0.000139405034
0.000132394514
0.00012446703
0.000115947028
0.000107114858
9.82090898e-05
8.94216426e-05
8.09030945e-05
7.27671505e-05
6.50951684e-05
5.7940804e-05
5.1334484e-05
4.52876061e-05
3.9796381e-05
3.48452844e-05
3.0410071e-05
2.64603648e-05
2.29618451e-05
1.98780335e-05
1.71717159e-05
1.48060057e-05
1.27451958e-05
1.09565513e-05
9.40886368e-06
8.07251621e-06
6.92123925e-06
5.93131496e-06
5.08153068e-06
4.3530581e-06
3.72928365e-06
3.19562597e-06
2.73937067e-06
2.34949376e-06
2.0164413e-06
1.73192963e-06
1.48883055e-06
1.28108392e-06
1.10353054e-06
9.51639238e-07
8.21606864e-07
7.10157283e-07
6.14679033e-07
5.32838057e-07
4.62483324e-07
4.01831692e-07
3.49522881e-07
3.04545584e-07
2.65744585e-07
2.32214422e-07
2.03068996e-07
1.77795382e-07
1.55914486e-07
1.36911502e-07
1.20388442e-07
1.05908338e-07
9.33624552e-08
8.24377816e-08
7.28578328e-08
6.44422215e-08
5.7026823e-08
5.05384511e-08
4.48303407e-08
3.97992767e-08
3.53435412e-08
3.14018317e-08
2.7917799e-08
2.48312288e-08
2.21085982e-08
1.96933957e-08
1.75533217e-08
1.56618715e-08
1.39851313e-08
1.24975874e-08
1.11772731e-08
1.00048459e-08
8.9619182e-09
8.0314937e-09
7.20002396e-09
6.45689458e-09
5.79314126e-09
5.20088524e-09
4.67300843e-09
4.20287746e-09
3.78420956e-09
3.41088139e-09
3.07608793e-09
2.77905097e-09
2.5138209e-09
2.27635277e-09
2.06328093e-09
1.87171175e-09
1.699138e-09
1.54337999e-09
1.40253741e-09
1.27495229e-09
1.15918247e-09
1.05398305e-09
9.58293529e-10
8.71227994e-10
7.92063805e-10
7.20221627e-10
6.55229019e-10
5.96646726e-10
5.43934319e-10
4.97203936e-10
4.55608377e-10
4.18605938e-10
3.85661686e-10
3.56256265e-10
3.29904123e-10
3.06167722e-10
2.84667646e-10
2.65092798e-10
2.47217366e-10
2.30941215e-10
2.16389331e-10
2.04160524e-10
1.95928875e-10
2.17278117e-09
1.02547961e-09
7.59395675e-10
9.58442858e-10
1.46408477e-09
2.05951221e-09
1.96142832e-09
1.50204863e-09
1.07811271e-09
8.50467547e-10
8.21948177e-10
8.7920997e-10
8.73061618e-10
7.99004381e-10
7.05795567e-10
6.37140725e-10
6.18170984e-10
6.589769e-10
7.39427758e-10
7.96775416e-10
8.09932998e-10
7.96967829e-10
7.88153024e-10
8.09145964e-10
8.76449198e-10
9.92727715e-10
1.14537228e-09
1.29812527e-09
1.42140933e-09
1.51332828e-09
1.59372185e-09
1.6898104e-09
1.82575303e-09
2.01800478e-09
2.27065309e-09
2.56846629e-09
2.87644332e-09
3.16072513e-09
3.41107097e-09
3.64245956e-09
3.88609951e-09
4.1734995e-09
4.53124104e-09
4.9698068e-09
5.48554627e-09
6.04920252e-09
6.62047395e-09
7.1699054e-09
7.69461197e-09
8.21793509e-09
8.77802572e-09
9.41450125e-09
1.01568392e-08
1.10158282e-08
1.1977699e-08
1.30082606e-08
1.40678745e-08
1.51306086e-08
1.61956425e-08
1.72857088e-08
1.84359001e-08
1.96808899e-08
2.10444929e-08
2.25370121e-08
2.4165347e-08
2.59394819e-08
2.78827937e-08
3.00254384e-08
3.23999619e-08
3.50245966e-08
3.78986353e-08
4.09986347e-08
4.42887411e-08
4.77436127e-08
5.13556929e-08
5.51668942e-08
5.92441763e-08
6.3690399e-08
6.86139063e-08
7.4120911e-08
8.02993172e-08
8.72089384e-08
9.48802438e-08
1.03325342e-07
1.12547005e-07
1.22575145e-07
1.3346863e-07
1.45331387e-07
1.58319679e-07
1.72638601e-07
1.88530804e-07
2.06263451e-07
2.26112982e-07
2.48364666e-07
2.73310537e-07
3.01249367e-07
3.32501059e-07
3.6744021e-07
4.06529548e-07
4.50317025e-07
4.99442624e-07
5.54681783e-07
6.16967201e-07
6.87413894e-07
7.67303792e-07
8.5821518e-07
9.62093451e-07
1.08127835e-06
1.21863044e-06
1.37763801e-06
1.56254179e-06
1.77868499e-06
2.03275435e-06
2.33310048e-06
2.69010218e-06
3.11657544e-06
3.62853129e-06
4.24551884e-06
4.99071226e-06
5.88998014e-06
6.97070794e-06
8.25739398e-06
9.76460051e-06
1.14877074e-05
1.34016945e-05
1.54606708e-05
1.76125083e-05
1.97966635e-05
2.19733636e-05
2.41302315e-05
2.62814536e-05
2.8455767e-05
3.07359756e-05
3.32156959e-05
3.59768865e-05
3.91821881e-05
4.29431237e-05
4.75967455e-05
5.34245714e-05
6.07656487e-05
7.00378636e-05
8.15582496e-05
9.50987948e-05
0.000109521932
0.00012311882
0.000134547464
0.000143080858
0.00014849964
0.000150914187
0.000150611961
0.000147968936
0.000143408167
0.000137377432
0.00013019261
0.000122192661
0.000113680458
0.000104916889
9.61231887e-05
8.74766759e-05
7.91162408e-05
7.11462919e-05
6.3641046e-05
5.6648879e-05
5.01965073e-05
4.42928994e-05
3.89328594e-05
3.41002447e-05
2.97707899e-05
2.5914527e-05
2.24978361e-05
1.94851218e-05
1.6840152e-05
1.45270478e-05
1.25109878e-05
1.07607295e-05
9.24514554e-06
7.93587285e-06
6.80733412e-06
5.836452e-06
5.00257404e-06
4.28735914e-06
3.67462201e-06
3.1501495e-06
2.70152336e-06
2.31795945e-06
1.99013134e-06
1.7099747e-06
1.47051887e-06
1.26577743e-06
1.09067115e-06
9.40829537e-07
8.12547134e-07
7.02586278e-07
6.08286712e-07
5.27360994e-07
4.57819469e-07
3.97960728e-07
3.46298732e-07
3.01761316e-07
2.63281866e-07
2.30110325e-07
2.01358021e-07
1.76369366e-07
1.54642885e-07
1.35759212e-07
1.19403636e-07
1.0510852e-07
9.26897658e-08
8.18221456e-08
7.22901286e-08
6.39582631e-08
5.6629504e-08
5.01959567e-08
4.45156421e-08
3.95144856e-08
3.51026568e-08
3.12018186e-08
2.77460313e-08
2.46760233e-08
2.1967328e-08
1.95723175e-08
1.74501928e-08
1.55707697e-08
1.39034591e-08
1.24255465e-08
1.11145183e-08
9.94949799e-09
8.91206261e-09
7.98626628e-09
7.15907588e-09
6.41981309e-09
5.75947969e-09
5.17032272e-09
4.64534159e-09
4.17792604e-09
3.76177704e-09
3.39078657e-09
3.05775519e-09
2.76295291e-09
2.49950002e-09
2.26358087e-09
2.05187304e-09
1.86150846e-09
1.69000072e-09
1.53518724e-09
1.39518269e-09
1.2683428e-09
1.15323798e-09
1.04863474e-09
9.53482807e-10
8.66905102e-10
7.88186051e-10
7.16751452e-10
6.5213253e-10
5.93896616e-10
5.41560278e-10
4.95061907e-10
4.53694668e-10
4.16901257e-10
3.84141829e-10
3.54897167e-10
3.28683559e-10
3.05066025e-10
2.83667966e-10
2.64180911e-10
2.46381234e-10
2.30170664e-10
2.15675328e-10
2.03493292e-10
1.95292709e-10
2.17480923e-07
6.03394925e-08
4.96260178e-08
6.27192887e-08
8.34742594e-08
9.71082521e-08
6.83722052e-08
3.93919489e-08
2.31528815e-08
1.72748847e-08
1.71836575e-08
1.76936727e-08
1.54322146e-08
1.22591678e-08
9.67365025e-09
8.16602962e-09
7.74981049e-09
8.22995372e-09
8.96699214e-09
8.8848046e-09
8.17137975e-09
7.38043692e-09
6.89066171e-09
6.87201956e-09
7.33398493e-09
8.15723504e-09
9.09405888e-09
9.73662594e-09
9.94179288e-09
9.89209638e-09
9.85664459e-09
1.00354438e-08
1.05333786e-08
1.13694634e-08
1.24734948e-08
1.36520599e-08
1.46369161e-08
1.52850971e-08
1.56685614e-08
1.59782853e-08
1.64112e-08
1.70974384e-08
1.80965906e-08
1.93788909e-08
2.0844925e-08
2.22996491e-08
2.35594571e-08
2.4564996e-08
2.53999353e-08
2.62264876e-08
2.72087335e-08
2.84636514e-08
3.0036301e-08
3.18896343e-08
3.39045171e-08
3.59246939e-08
3.7825698e-08
3.9573959e-08
4.12311475e-08
4.29117096e-08
4.47288982e-08
4.67601094e-08
4.90281026e-08
5.15168166e-08
5.42165558e-08
5.71428692e-08
6.03485074e-08
6.38940416e-08
6.78290028e-08
7.21508777e-08
7.68074691e-08
8.17027841e-08
8.67395194e-08
9.18719481e-08
9.71195563e-08
1.02604657e-07
1.08496895e-07
1.14993466e-07
1.22276003e-07
1.30492109e-07
1.39731751e-07
1.50023132e-07
1.61340879e-07
1.73639229e-07
1.86877811e-07
2.01084736e-07
2.16348813e-07
2.32839139e-07
2.50804328e-07
2.70553161e-07
2.9243069e-07
3.1679201e-07
3.43983793e-07
3.74344107e-07
4.08207623e-07
4.45913186e-07
4.87818023e-07
5.34371847e-07
5.86124936e-07
6.43731748e-07
7.07988575e-07
7.79848859e-07
8.60456648e-07
9.51167868e-07
1.05351878e-06
1.16941262e-06
1.30119787e-06
1.45167484e-06
1.62420992e-06
1.822854e-06
2.0524495e-06
2.31911501e-06
2.63039264e-06
2.99554045e-06
3.42581821e-06
3.9347574e-06
4.53900603e-06
5.25820371e-06
6.11467633e-06
7.1316925e-06
8.33260475e-06
9.73581185e-06
1.13484003e-05
1.31577899e-05
1.51373324e-05
1.72437491e-05
1.94369612e-05
2.16613369e-05
2.38897127e-05
2.61214865e-05
2.83798369e-05
3.06919015e-05
3.31617918e-05
3.58882642e-05
3.89383617e-05
4.25084021e-05
4.67682873e-05
5.20161299e-05
5.85060416e-05
6.65444654e-05
7.64566584e-05
8.83636644e-05
0.000101731243
0.000115315682
0.000127666471
0.000137749188
0.000145028863
0.000149370323
0.000150906512
0.000149923129
0.000146779205
0.000141873777
0.000135639137
0.000128343502
0.00012030738
0.00011181828
0.000103122716
9.44282575e-05
8.5901581e-05
7.7672793e-05
6.98393354e-05
6.24700891e-05
5.56095004e-05
4.92815436e-05
4.34934146e-05
3.8238918e-05
3.35015078e-05
2.92569651e-05
2.54756922e-05
2.21246563e-05
1.91689871e-05
1.65732489e-05
1.43023799e-05
1.23222204e-05
1.06027797e-05
9.11304331e-06
7.82555407e-06
6.7153181e-06
5.75977241e-06
4.93871467e-06
4.23419353e-06
3.63036207e-06
3.11330041e-06
2.67083615e-06
2.29238559e-06
1.9687945e-06
1.69215605e-06
1.45563273e-06
1.25332971e-06
1.08023504e-06
9.32061884e-07
8.05173824e-07
6.96394474e-07
6.0307132e-07
5.22939574e-07
4.54057295e-07
3.94788441e-07
3.43623823e-07
2.99482949e-07
2.61320303e-07
2.28427194e-07
1.9994241e-07
1.75165407e-07
1.53602494e-07
1.34851639e-07
1.18618054e-07
1.04441797e-07
9.21181617e-08
8.13212903e-08
7.1846007e-08
6.35715793e-08
5.62976791e-08
4.99075619e-08
4.42618864e-08
3.92908139e-08
3.49086302e-08
3.10343686e-08
2.76007271e-08
2.45483796e-08
2.18541471e-08
1.94735308e-08
1.73641853e-08
1.54948882e-08
1.38363144e-08
1.23663067e-08
1.10622591e-08
9.90304125e-09
8.87032476e-09
7.94856605e-09
7.12496299e-09
6.38891365e-09
5.73149062e-09
5.14501082e-09
4.62251016e-09
4.15738721e-09
3.74334578e-09
3.37430254e-09
3.04265915e-09
2.74980585e-09
2.48778432e-09
2.25312685e-09
2.04253289e-09
1.85315274e-09
1.68251662e-09
1.528476e-09
1.38915772e-09
1.2629285e-09
1.14836884e-09
1.04425454e-09
9.49543631e-10
8.63366173e-10
7.85012267e-10
7.13911827e-10
6.49598965e-10
5.91645395e-10
5.39587927e-10
4.93301694e-10
4.52126033e-10
4.15504274e-10
3.82895793e-10
3.5378226e-10
3.27681712e-10
3.04161286e-10
2.82846611e-10
2.63431346e-10
2.45693725e-10
2.29536992e-10
2.15088115e-10
2.02944522e-10
1.94769575e-10
1.75728325e-05
1.27525423e-05
9.58590218e-06
7.35300907e-06
5.70716412e-06
4.47636756e-06
3.55747392e-06
2.87216939e-06
2.36620693e-06
1.98759907e-06
1.69910534e-06
1.4778587e-06
1.30685551e-06
1.1718245e-06
1.06321707e-06
9.75057519e-07
9.02904224e-07
8.42968739e-07
7.92653201e-07
7.50195484e-07
7.14121113e-07
6.83174922e-07
6.56478789e-07
6.33382977e-07
6.13300804e-07
5.95731616e-07
5.80310734e-07
5.66734639e-07
5.54761852e-07
5.44185013e-07
5.34821048e-07
5.26513217e-07
5.1916266e-07
5.12684381e-07
5.07024785e-07
5.02188541e-07
4.98255729e-07
4.9586047e-07
5.06002911e-07
9.29057896e-07
1.90831052e-05
1.47592378e-05
1.16399636e-05
9.3072701e-06
7.50963653e-06
6.09383893e-06
4.97500145e-06
4.09395295e-06
3.40668724e-06
2.86859418e-06
2.44263166e-06
2.10410981e-06
1.83512524e-06
1.61922734e-06
1.44359657e-06
1.29958961e-06
1.18103897e-06
1.08250574e-06
9.99785572e-07
9.29956042e-07
8.70761358e-07
8.20183874e-07
7.76676475e-07
7.39119231e-07
7.06594099e-07
6.78262404e-07
6.53483026e-07
6.3173797e-07
6.12604704e-07
5.95742129e-07
5.80857086e-07
5.67676787e-07
5.5601459e-07
5.45721822e-07
5.36686193e-07
5.28857766e-07
5.22300566e-07
5.17138415e-07
5.15356862e-07
5.66624241e-07
2.02995093e-05
1.64669941e-05
1.34772576e-05
1.11372627e-05
9.27692878e-06
7.76933108e-06
6.53053419e-06
5.50920066e-06
4.66937472e-06
3.97921806e-06
3.41094797e-06
2.94275049e-06
2.55742774e-06
2.23975885e-06
1.97656805e-06
1.75752122e-06
1.57466856e-06
1.42145751e-06
1.29237306e-06
1.1830509e-06
1.09016652e-06
1.0109315e-06
9.42975782e-07
8.84426944e-07
8.33842198e-07
7.89984513e-07
7.51825628e-07
7.18489466e-07
6.89254648e-07
6.63549888e-07
6.40927825e-07
6.20976059e-07
6.0334968e-07
5.87767506e-07
5.74010061e-07
5.61891421e-07
5.51311156e-07
5.42117674e-07
5.34404955e-07
5.32401392e-07
2.06467747e-05
1.71347766e-05
1.4277512e-05
1.1973842e-05
1.01079625e-05
8.58183476e-06
7.31933842e-06
6.26589198e-06
5.38208643e-06
4.63864606e-06
4.01218694e-06
3.48366302e-06
3.03789266e-06
2.66222503e-06
2.34551098e-06
2.07806077e-06
1.85194057e-06
1.66058331e-06
1.49831654e-06
1.36033592e-06
1.24274134e-06
1.14227655e-06
1.0561791e-06
9.82153697e-07
9.18312482e-07
8.63113421e-07
8.15249902e-07
7.73605599e-07
7.37247383e-07