/*--------------------------------*- C++ -*----------------------------------*\
  =========                 |
  \\      /  F ield         | OpenFOAM: The Open Source CFD Toolbox
   \\    /   O peration     | Website:  https://openfoam.org
    \\  /    A nd           | Version:  6
     \\/     M anipulation  |
\*---------------------------------------------------------------------------*/
FoamFile
{
    version     2.0;
    format      ascii;
    class       volScalarField;
    location    "25000";
    object      H2;
}
// * * * * * * * * * * * * * * * * * * * * * * * * * * * * * * * * * * * * * //

dimensions      [0 0 0 0 0 0 0];

internalField   nonuniform List<scalar> 
44870
(
1.79191907e-63
5.72871805e-63
9.6191637e-63
7.03089851e-63
1.01870586e-62
8.45656745e-63
8.63663298e-63
1.0879635e-62
1.01807692e-62
1.20500713e-62
1.64400019e-62
1.98808565e-62
1.84203758e-62
1.85015194e-62
1.81467421e-62
1.98644976e-62
1.91362884e-62
2.74907018e-62
5.79745068e-61
8.93700814e-59
1.45688007e-56
2.41457127e-54
4.06512488e-52
6.94965597e-50
1.2057045e-47
2.12196714e-45
3.78553845e-43
6.84277445e-41
1.25197629e-38
2.31740259e-36
4.33237091e-34
8.17284046e-32
1.55114164e-29
2.95555875e-27
5.61877208e-25
1.05927273e-22
1.95075826e-20
3.44037801e-18
5.47253483e-16
7.37227629e-14
2.75468557e-63
4.76494784e-63
8.35014508e-63
8.36083437e-63
1.10576565e-62
1.37394557e-62
1.25058438e-62
1.14572025e-62
1.14456585e-62
1.36260696e-62
1.60230075e-62
1.55700915e-62
1.68263533e-62
1.64250855e-62
2.02560536e-62
1.84459266e-62
2.05209121e-62
2.31099425e-62
9.05880298e-61
1.5502854e-58
2.77469886e-56
5.04533768e-54
9.3033914e-52
1.73971834e-49
3.2933698e-47
6.31580095e-45
1.22447137e-42
2.40348499e-40
4.76421024e-38
9.56002978e-36
1.93523765e-33
3.96597774e-31
8.18819837e-29
1.71155819e-26
3.59454884e-24
7.62466412e-22
1.61046466e-19
3.39555807e-17
6.69467439e-15
1.25637616e-12
2.55479708e-63
8.73056428e-63
8.27384994e-63
9.0113275e-63
1.28929689e-62
1.3266146e-62
1.24583551e-62
1.17134581e-62
1.33695615e-62
1.42975772e-62
1.34122472e-62
1.69864544e-62
2.36063541e-62
2.70485849e-62
2.81150389e-62
3.00194924e-62
3.22210834e-62
3.83426134e-62
3.27837388e-60
6.5897919e-58
1.34537866e-55
2.76650149e-53
5.71723403e-51
1.18976579e-48
2.48608438e-46
5.23395216e-44
1.10570813e-41
2.35567009e-39
5.03251656e-37
1.08592771e-34
2.3476391e-32
5.1361612e-30
1.12426334e-27
2.49740983e-25
5.54602042e-23
1.25350932e-20
2.82878289e-18
6.54947585e-16
1.45548061e-13
3.32390632e-11
3.53622316e-63
4.09085144e-63
4.24476417e-63
6.35196963e-63
5.26419926e-63
7.31838204e-63
8.56954152e-63
8.87290663e-63
1.68028563e-62
1.42636648e-62
2.08296396e-62
3.01961623e-62
3.24790372e-62
2.51309539e-62
2.54388613e-62
3.06858059e-62
3.38598563e-62
2.46674461e-61
4.68749847e-59
1.04432147e-56
2.32028097e-54
5.14088888e-52
1.1361323e-49
2.50752769e-47
5.52554866e-45
1.21772731e-42
2.68190972e-40
5.91439623e-38
1.30421824e-35
2.88444572e-33
6.38076474e-31
1.4178107e-28
3.1510222e-26
7.04528387e-24
1.57543249e-21
3.54233718e-19
7.94400703e-17
1.78409035e-14
3.87736695e-12
8.19660311e-10
9.32980448e-63
2.66929018e-63
7.45825722e-63
6.41635646e-63
2.1574384e-63
1.50136066e-62
1.59496494e-62
1.9279533e-62
2.3263508e-62
2.1006152e-62
2.47087121e-62
1.899973e-62
2.41728119e-62
3.21792533e-62
3.10450331e-62
2.87362671e-62
4.9597734e-62
4.35118443e-60
9.87613238e-58
2.23793137e-55
5.03149175e-53
1.12346518e-50
2.49352626e-48
5.5055825e-46
1.21010489e-43
2.64949562e-41
5.78168927e-39
1.25786116e-36
2.73002248e-34
5.91207547e-32
1.27809012e-29
2.75872244e-27
5.94757456e-25
1.28085604e-22
2.75626791e-20
5.92671217e-18
1.27376224e-15
2.73603308e-13
5.87437968e-11
1.26744979e-08
2.35375593e-12
9.86435729e-12
2.5820419e-11
5.58976842e-11
1.08925252e-10
1.9803639e-10
3.42399441e-10
5.70714904e-10
9.23772827e-10
1.46249686e-09
2.26920758e-09
3.46321985e-09
5.1974131e-09
7.68574908e-09
1.11996547e-08
1.60908525e-08
2.28192241e-08
3.19384238e-08
4.42034673e-08
6.0473444e-08
8.19020697e-08
1.09842372e-07
1.45993875e-07
1.92457417e-07
2.51778483e-07
3.27157317e-07
4.22118038e-07
5.41815795e-07
6.91025951e-07
8.77422685e-07
1.10850117e-06
1.3941431e-06
1.74609083e-06
2.17671214e-06
2.7030701e-06
3.34136814e-06
4.11464682e-06
5.04454644e-06
6.16047771e-06
7.49191551e-06
9.07616393e-06
1.09535637e-05
1.31703743e-05
1.57741442e-05
1.88251049e-05
2.23756784e-05
2.64836635e-05
3.12090358e-05
3.66141357e-05
4.27646269e-05
4.97281623e-05
5.75756726e-05
6.63774962e-05
7.62047272e-05
8.71228463e-05
9.91925006e-05
0.000112462467
0.000126970568
0.000142740155
0.000159782087
0.000178095905
0.000197670313
0.000218489197
0.000240528754
0.000263772094
0.000288199054
0.000313807085
0.000340592247
0.000368566652
0.000397729684
0.00042807887
0.000459591857
0.000492220891
0.000525920064
0.000560595036
0.000596217436
0.000632639919
0.00066983054
0.000707728636
0.000746292358
0.000785484355
0.000825275301
0.00086564916
0.00090659023
0.000948087044
0.000990120614
0.00103268325
0.00107574867
0.00111929613
0.00116330707
0.00120775824
0.00125263343
0.00129791317
0.00134358405
0.00138964027
0.00143608622
0.00148293726
0.00153022337
0.00157798855
0.00162629847
0.00167521451
0.00172482603
0.00177522138
0.00182650199
0.00187877289
0.00193216243
0.00198681843
0.00204290455
0.002100637
0.00216027075
0.00222212905
0.00228660593
0.00235418764
0.00242548887
0.0025012725
0.00258247839
0.0026702507
0.00276594668
0.00287109892
0.00298727877
0.0031157795
0.00325702509
0.00340968628
0.00356974626
0.00373011079
0.00388154538
0.00401479117
0.00412278492
0.00420180679
0.00425124222
0.00427264361
0.00426873662
0.00424258338
0.00419711067
0.00413492402
0.00405813038
0.00396839368
0.00386686878
0.003754141
0.00363044027
0.00349293915
0.00333933327
0.00316709317
0.00297549012
0.0027698872
0.00255987521
0.00235290713
0.00215311283
0.00196267863
0.00178295761
0.00161455618
0.00145765665
0.0013121768
0.00117794938
0.00105468054
0.000941947608
0.000839235838
0.000745994996
0.000661648737
0.000585598072
0.000517241781
0.00045598681
0.000401255252
0.000352489661
0.000309157051
0.000270751847
0.000236797978
0.000206850115
0.000180494314
0.0001573481
0.000137060013
0.000119308664
0.000103801322
9.02732889e-05
7.84911624e-05
6.8245416e-05
5.93416044e-05
5.16098894e-05
4.4900767e-05
3.90823056e-05
3.40384128e-05
2.96671625e-05
2.58793035e-05
2.25970237e-05
1.97526587e-05
1.72871968e-05
1.51491241e-05
1.3293888e-05
1.1683404e-05
1.0284724e-05
9.0680011e-06
8.00989162e-06
7.08732789e-06
6.2838773e-06
5.58346452e-06
4.97095356e-06
4.43378818e-06
3.96328889e-06
3.55231657e-06
3.19203505e-06
2.87524731e-06
2.59551324e-06
2.34980839e-06
2.13415954e-06
1.94402014e-06
1.77616836e-06
1.62733846e-06
1.49699173e-06
1.38231745e-06
1.28067028e-06
1.19028509e-06
1.10999399e-06
1.03920021e-06
9.76464789e-07
9.20732352e-07
8.70999322e-07
8.26750821e-07
7.87127811e-07
7.52046909e-07
7.21745051e-07
6.94925801e-07
6.71535152e-07
6.51340907e-07
6.3394898e-07
6.19009039e-07
6.06208639e-07
5.95260945e-07
5.85907976e-07
5.77988462e-07
5.71464546e-07
5.66380758e-07
5.62814256e-07
5.60831626e-07
5.60447726e-07
5.61607973e-07
5.64208767e-07
5.68159658e-07
5.73316614e-07
5.7894195e-07
5.85041603e-07
5.91480076e-07
5.98054807e-07
6.04585037e-07
6.10933633e-07
6.17003061e-07
6.22728235e-07
6.28072189e-07
6.33024431e-07
6.3760083e-07
6.41843947e-07
6.45822638e-07
6.4962922e-07
6.53372088e-07
6.57162885e-07
6.61106266e-07
6.65339547e-07
6.69387112e-07
6.73502768e-07
6.77534971e-07
6.81338344e-07
6.84796037e-07
6.87826293e-07
6.90385202e-07
6.92463515e-07
6.94079884e-07
6.95273561e-07
6.96098581e-07
6.96620444e-07
6.96914375e-07
6.97057627e-07
4.85698775e-11
1.75175335e-10
4.00080162e-10
7.85798823e-10
1.42613457e-09
2.45424671e-09
4.06005996e-09
6.53710036e-09
1.02999955e-08
1.59594679e-08
2.43088036e-08
3.64544842e-08
5.37440615e-08
7.79870977e-08
1.11362755e-07
1.56565735e-07
2.16951105e-07
2.96358632e-07
3.99729055e-07
5.3231725e-07
7.00757749e-07
9.12390731e-07
1.17559446e-06
1.50058348e-06
1.89744017e-06
2.37977853e-06
2.96005874e-06
3.65549732e-06
4.48113381e-06
5.45725124e-06
6.60227606e-06
7.93781345e-06
9.48442477e-06
1.12640352e-05
1.32993319e-05
1.56123267e-05
1.82283477e-05
2.11698852e-05
2.44655306e-05
2.81390037e-05
3.222113e-05
3.67361431e-05
4.17130179e-05
4.71698229e-05
5.31424634e-05
5.9647132e-05
6.67069726e-05
7.43470149e-05
8.25944077e-05
9.14788351e-05
0.000101031758
0.000111287222
0.000122280461
0.00013404911
0.000146631752
0.000160068983
0.000174400643
0.000189665921
0.000205899936
0.000223133298
0.000241389489
0.00026068566
0.0002810321
0.000302434973
0.000324899954
0.00034842816
0.000373031489
0.000398719103
0.000425507672
0.000453403901
0.000482411061
0.000512515949
0.000543686782
0.000575888713
0.000609052699
0.000643154694
0.00067807434
0.000713786529
0.000750239157
0.00078739688
0.000825222247
0.00086368938
0.000902782853
0.000942485808
0.000982784417
0.00102366101
0.00106510431
0.00110709122
0.00114960037
0.00119261539
0.00123611312
0.0012800753
0.00132448556
0.00136933201
0.00141461027
0.00146032556
0.00150649376
0.00155314532
0.00160032421
0.00164809641
0.00169652163
0.00174568844
0.00179568492
0.0018466122
0.00189857515
0.00195170404
0.00200614612
0.00206206762
0.00211968798
0.00217926648
0.00224112694
0.00230566703
0.00237337939
0.00244487932
0.00252092714
0.00260245456
0.00269058654
0.00278664284
0.00289208943
0.00300838869
0.0031366703
0.00327714036
0.00342823055
0.00358574929
0.00374260322
0.0038898011
0.00401850109
0.00412207954
0.00419712998
0.00424319202
0.00426183763
0.00425573891
0.00422785941
0.0041810245
0.00411776157
0.00404009217
0.0039496306
0.00384747504
0.00373414302
0.00360948879
0.0034709512
0.00331629564
0.00314317138
0.00295131884
0.00274651303
0.00253805095
0.00233291133
0.0021349896
0.00194637545
0.00176837294
0.00160156945
0.0014461411
0.00130199813
0.00116898797
0.00104682439
0.000935086532
0.000833264399
0.000740815709
0.000657170877
0.000581737888
0.000513923045
0.000453140741
0.000398820251
0.000350410901
0.000307386003
0.00026924577
0.000235519409
0.00020576636
0.000179576958
0.000156572543
0.000136405035
0.000118756021
0.000103335354
8.98804755e-05
7.816026e-05
6.79670646e-05
5.91072754e-05
5.14125835e-05
4.47346106e-05
3.89423485e-05
3.39204912e-05
2.95677649e-05
2.57954537e-05
2.25262208e-05
1.96928442e-05
1.72366615e-05
1.51063741e-05
1.32576163e-05
1.16525896e-05
1.02586391e-05
9.04573964e-06
7.99108862e-06
7.07119429e-06
6.27010853e-06
5.57191674e-06
4.96124439e-06
4.42542201e-06
3.95594873e-06
3.54611463e-06
3.18695901e-06
2.87103029e-06
2.59181142e-06
2.34651084e-06
2.13145837e-06
1.94191767e-06
1.77445062e-06
1.62578507e-06
1.49564936e-06
1.38130553e-06
1.27994546e-06
1.18972465e-06
1.10951893e-06
1.03886331e-06
9.76309788e-07
9.20724968e-07
8.71079793e-07
8.2689587e-07
7.87345163e-07
7.52326921e-07
7.22129127e-07
6.95342826e-07
6.71981499e-07
6.51820611e-07
6.34458445e-07
6.19539609e-07
6.06754015e-07
5.95819743e-07
5.86480901e-07
5.78575849e-07
5.72066287e-07
5.66996261e-07
5.63440889e-07
5.61464394e-07
5.61080174e-07
5.62233087e-07
5.64819659e-07
5.68751212e-07
5.73907306e-07
5.79489952e-07
5.85555899e-07
5.91964879e-07
5.98510786e-07
6.05012943e-07
6.11335194e-07
6.17380686e-07
6.23084601e-07
6.28409956e-07
6.33346078e-07
6.37908534e-07
6.42139487e-07
6.46107284e-07
6.4990361e-07
6.5363611e-07
6.57415546e-07
6.61345448e-07
6.65575494e-07
6.69590471e-07
6.73690722e-07
6.77704968e-07
6.81489981e-07
6.84930163e-07
6.87944393e-07
6.90489065e-07
6.92555003e-07
6.94160789e-07
6.95345518e-07
6.96163053e-07
6.96678778e-07
6.96967971e-07
6.97108892e-07
1.82720537e-09
5.75904764e-09
1.18040408e-08
2.13952599e-08
3.60997921e-08
5.80974017e-08
9.07944975e-08
1.39277576e-07
2.10232076e-07
3.12191056e-07
4.54889831e-07
6.49710919e-07
9.08756655e-07
1.24588371e-06
1.67562673e-06
2.21410716e-06
2.87828078e-06
3.68534818e-06
4.6535565e-06
5.80026052e-06
7.14375539e-06
8.70160365e-06
1.04917068e-05
1.25323664e-05
1.48407858e-05
1.7437482e-05
2.03375774e-05
2.35625265e-05
2.71217971e-05
3.10320834e-05
3.53026806e-05
3.99423565e-05
4.49560702e-05
5.03500604e-05
5.61285446e-05
6.22983557e-05
6.88671121e-05
7.58430609e-05
8.32372912e-05
9.1054894e-05
9.93046861e-05
0.000107985914
0.000117103889
0.000126647563
0.000136636445
0.000147060274
0.000157920164
0.000169219056
0.000180961275
0.00019315293
0.000205800771
0.000218915418
0.000232510205
0.000246603107
0.000261216511
0.000276377753
0.000292117559
0.000308469571
0.000325467942
0.00034314582
0.00036153379
0.000380660729
0.000400551083
0.000421232773
0.000442726209
0.000465053336
0.000488244761
0.000512324899
0.000537319819
0.00056324864
0.000590125771
0.000617953675
0.000646723802
0.000676421071
0.000707012115
0.000738484542
0.000770763714
0.000803838132
0.000837674991
0.000872250289
0.00090753881
0.000943522447
0.000980187718
0.00101752133
0.00105550953
0.00109413946
0.00113339646
0.00117326624
0.0012137289
0.00125476681
0.00129636281
0.00133850098
0.00138116818
0.00142435644
0.00146806538
0.00151230281
0.00155708695
0.00160245036
0.00164843799
0.0016951154
0.00174254202
0.00179080452
0.00183999119
0.00189020281
0.00194154484
0.00199415033
0.00204816635
0.00210376656
0.00216117473
0.00222065937
0.00228254732
0.0023472455
0.00241525294
0.00248718475
0.00256379326
0.00264598634
0.00273483944
0.00283158055
0.00293751889
0.00305386839
0.00318139781
0.00331985016
0.00346717533
0.0036188695
0.00376791436
0.00390588564
0.004024827
0.00411901347
0.0041856608
0.00422459799
0.00423742339
0.00422669173
0.00419515154
0.00414541479
0.00407985236
0.00400029884
0.00390827231
0.00380474502
0.00369011073
0.00356322272
0.00342240143
0.00326553549
0.00309065353
0.00289857496
0.00269576436
0.00249076644
0.00228961182
0.00209574808
0.00191107848
0.00173678492
0.00157343641
0.00142118924
0.0012799349
0.00114955812
0.00102978646
0.000920202598
0.00082030592
0.000729573259
0.000647447976
0.000573353434
0.000506712229
0.000446954829
0.000393525995
0.000345889658
0.000303532719
0.000265967886
0.000232735757
0.000203406076
0.000177578429
0.000154882403
0.000134977228
0.000117550937
0.000102318983
8.90234149e-05
7.74380539e-05
6.73594916e-05
5.8595604e-05
5.09816452e-05
4.43716291e-05
3.86365382e-05
3.36627614e-05
2.93504616e-05
2.5612128e-05
2.23714399e-05
1.95620565e-05
1.7126071e-05
1.50127898e-05
1.31783284e-05
1.15853215e-05
1.02015625e-05
8.99773858e-06
7.94987358e-06
7.03613436e-06
6.24020587e-06
5.5464995e-06
4.93966954e-06
4.40712071e-06
3.94027987e-06
3.53272934e-06
3.17559794e-06
2.861488e-06
2.58380047e-06
2.33965129e-06
2.12564306e-06
1.93709047e-06
1.77049675e-06
1.62250816e-06
1.49294234e-06
1.37911789e-06
1.27821936e-06
1.18842888e-06
1.10857282e-06
1.03823032e-06
9.75966899e-07
9.20643708e-07
8.71235837e-07
8.27259001e-07
7.87953394e-07
7.53170626e-07
7.22941354e-07
6.96254952e-07
6.7297602e-07
6.52881696e-07
6.3557432e-07
6.20700809e-07
6.07952102e-07
5.97048868e-07
5.87738822e-07
5.79863379e-07
5.7338457e-07
5.6834394e-07
5.64812138e-07
5.62848678e-07
5.62463838e-07
5.63601017e-07
5.66156857e-07
5.70047288e-07
5.75203288e-07
5.80690118e-07
5.86683593e-07
5.93028849e-07
5.99511975e-07
6.05952798e-07
6.12217407e-07
6.18210471e-07
6.2386776e-07
6.29152255e-07
6.34052882e-07
6.3858456e-07
6.42788583e-07
6.46732192e-07
6.50505709e-07
6.54215173e-07
6.57969444e-07
6.61869197e-07
6.66024285e-07
6.70033999e-07
6.74103069e-07
6.78077968e-07
6.81822832e-07
6.85224719e-07
6.88203886e-07
6.90717377e-07
6.92756183e-07
6.94338733e-07
6.95503793e-07
6.96304857e-07
6.96807047e-07
6.97085745e-07
6.97220773e-07
7.34229775e-08
1.83340624e-07
3.32800108e-07
5.31397682e-07
7.93179578e-07
1.14893789e-06
1.64832836e-06
2.34938179e-06
3.30484446e-06
4.55767405e-06
6.13666806e-06
8.06283342e-06
1.0349074e-05
1.30108432e-05
1.60587263e-05
1.95065417e-05
2.33571456e-05
2.76098316e-05
3.22599859e-05
3.72967514e-05
4.27124392e-05
4.84965277e-05
5.46484866e-05
6.11634632e-05
6.8048779e-05
7.53049262e-05
8.29345574e-05
9.09402826e-05
9.93000965e-05
0.000108014974
0.000117074699
0.000126470696
0.0001361975
0.000146254926
0.000156645155
0.000167372217
0.000178437276
0.00018983981
0.00020157367
0.000213624879
0.000225979697
0.000238618063
0.000251526888
0.000264676973
0.000278078954
0.00029170599
0.000305548019
0.00031959935
0.000333858439
0.000348326395
0.00036300803
0.00037791296
0.000393054342
0.000408451208
0.000424126234
0.000440107095
0.000456424208
0.000473110192
0.000490197837
0.000507717429
0.000525699051
0.000544170511
0.000563160596
0.00058269857
0.000602814285
0.000623539785
0.000644912208
0.000666965377
0.000689733847
0.000713246973
0.000737530331
0.000762601412
0.000788471878
0.00081514628
0.000842620422
0.00087089663
0.000899943001
0.000929763379
0.000960346022
0.000991679642
0.00102375951
0.00105657659
0.00109012175
0.00112439011
0.00115937182
0.00119506179
0.0012314486
0.00126852171
0.00130626857
0.00134467591
0.00138373238
0.00142342783
0.00146375459
0.00150471114
0.00154630339
0.00158854375
0.00163145494
0.00167507484
0.00171945015
0.00176464146
0.00181071507
0.00185775503
0.00190585038
0.00195510176
0.00200561774
0.00205752989
0.00211099053
0.00216618487
0.00222334103
0.0022827383
0.00234471239
0.00240967455
0.00247812694
0.00255067827
0.00262805741
0.00271111993
0.00280084588
0.00289829955
0.0030045264
0.00312034501
0.0032459821
0.00338053346
0.00352134506
0.00366362907
0.00380065025
0.00392489952
0.00402966358
0.00411041015
0.0041651364
0.00419399666
0.00419858781
0.00418129457
0.00414453794
0.00409063158
0.00402175304
0.00393944286
0.00384511546
0.00373955118
0.00362211724
0.0034921145
0.00334811133
0.00318816475
0.00301122558
0.00281967918
0.00262046184
0.00242082176
0.00222561758
0.00203775858
0.00185892442
0.00169008814
0.00153183416
0.00138427661
0.00124727314
0.00112078222
0.00100454153
0.000898138501
0.000801085292
0.000712889746
0.00063301159
0.000560897266
0.000495993415
0.000437754121
0.000385646854
0.000339156976
0.000297791337
0.000261081008
0.000228583328
0.000199883205
0.000174593845
0.000152356994
0.000132842668
0.000115748419
0.000100797991
8.77401668e-05
7.63577144e-05
6.64491188e-05
5.78284604e-05
5.03352671e-05
4.38269686e-05
3.81774885e-05
3.32757297e-05
2.90240164e-05
2.53366621e-05
2.21388317e-05
1.93654283e-05
1.69596946e-05
1.48719696e-05
1.3059119e-05
1.14842286e-05
1.01156121e-05
8.92490894e-06
7.88790557e-06
6.98361206e-06
6.19540012e-06
5.50805574e-06
4.90689746e-06
4.37962788e-06
3.91707831e-06
3.51274756e-06
3.15820664e-06
2.84681941e-06
2.57183761e-06
2.32968364e-06
2.11699068e-06
1.92959494e-06
1.76435974e-06
1.61769906e-06
1.4891086e-06
1.37586958e-06
1.27549585e-06
1.18641991e-06
1.10724859e-06
1.03739382e-06
9.75462658e-07
9.20471037e-07
8.71462317e-07
8.27854121e-07
7.88953234e-07
7.5441038e-07
7.24178443e-07
6.97644423e-07
6.74505554e-07
6.54505028e-07
6.37270392e-07
6.22463054e-07
6.09773139e-07
5.98916946e-07
5.89646577e-07
5.81812358e-07
5.75377706e-07
5.70379607e-07
5.66881862e-07
5.64937371e-07
5.64551467e-07
5.65664997e-07
5.68174606e-07
5.72002584e-07
5.77167238e-07
5.82498916e-07
5.88386337e-07
5.94637184e-07
6.01026078e-07
6.07374498e-07
6.13552196e-07
6.19466163e-07
6.25053034e-07
6.30275725e-07
6.35122552e-07
6.39607465e-07
6.43770459e-07
6.47677122e-07
6.5141575e-07
6.55090001e-07
6.58805931e-07
6.62658473e-07
6.66708497e-07
6.70708571e-07
6.74726455e-07
6.78641558e-07
6.82325889e-07
6.856701e-07
6.8859644e-07
6.91062925e-07
6.93060788e-07
6.94608232e-07
6.95743547e-07
6.96519675e-07
6.97001343e-07
6.97264072e-07
6.97389567e-07
2.85034657e-06
4.48363282e-06
6.05969594e-06
7.77553464e-06
9.90681614e-06
1.29593968e-05
1.74667723e-05
2.35446139e-05
3.09602638e-05
3.93499557e-05
4.83641891e-05
5.77814986e-05
6.75080675e-05
7.75593358e-05
8.79558854e-05
9.8686822e-05
0.000109703627
0.000120930213
0.00013229299
0.000143746462
0.00015529477
0.000166970855
0.000178828553
0.000190911201
0.000203259694
0.000215869071
0.000228748785
0.000241830467
0.000255098872
0.000268528411
0.000282103154
0.000295816889
0.00030967676
0.000323696932
0.000337884916
0.000352237966
0.000366738852
0.000381366032
0.000396088083
0.000410872575
0.00042569152
0.000440522161
0.000455352965
0.000470158262
0.000484956761
0.000499727557
0.000514472296
0.000529199866
0.000543923375
0.000558658707
0.000573424224
0.000588242742
0.000603138541
0.000618141038
0.000633279311
0.000648586667
0.000664095117
0.000679836213
0.000695838415
0.00071212418
0.000728717003
0.000745635768
0.000762907694
0.000780551336
0.000798603845
0.000817096956
0.000836063808
0.000855541322
0.000875568831
0.000896180319
0.000917410239
0.000939287725
0.00096183961
0.000985086392
0.00100904409
0.00103372953
0.00105914454
0.00108530524
0.00111221694
0.00113988566
0.0011683193
0.00119752188
0.00122749422
0.00125823923
0.00128975411
0.00132204397
0.00135510294
0.00138892605
0.0014235094
0.00145884757
0.00149493665
0.00153177395
0.00156935966
0.00160770063
0.00164681041
0.0016867079
0.0017274222
0.00176900257
0.00181148547
0.00185493497
0.00189942914
0.00194504667
0.0019918777
0.0020400233
0.00208959549
0.00214072222
0.00219356549
0.00224832264
0.00230523003
0.0023645747
0.00242669523
0.00249200244
0.00256098952
0.00263423984
0.00271242746
0.00279630642
0.00288669252
0.00298438943
0.00309005226
0.0032039577
0.00332565033
0.00345350029
0.00358430087
0.00371321043
0.00383410015
0.00394070056
0.00402773362
0.00409198031
0.00413221682
0.00414887226
0.00414347604
0.00411821775
0.00407506375
0.00401597843
0.00394297294
0.00385714416
0.00375988016
0.00365072247
0.00352954397
0.00339567769
0.0032477482
0.00308436583
0.00290600105
0.00271669925
0.00252304899
0.00233063927
0.00214318449
0.0019630645
0.00179169649
0.00162991938
0.0014782094
0.00133667038
0.00120510785
0.00108360901
0.000971901492
0.000869588697
0.000776204292
0.000691278543
0.000614296995
0.000544736938
0.000482075844
0.000425797948
0.000375399646
0.000330393624
0.000290312185
0.000254709857
0.000223165383
0.00019528308
0.000170693609
0.000149054319
0.000130049084
0.000113387706
9.88046383e-05
8.60571639e-05
7.49403684e-05
6.52535764e-05
5.68204332e-05
4.94854385e-05
4.31104857e-05
3.75733085e-05
3.27660655e-05
2.85939121e-05
2.49735793e-05
2.18321531e-05
1.91060792e-05
1.67400944e-05
1.46860213e-05
1.29017758e-05
1.1350861e-05
1.00020872e-05
8.82826962e-06
7.80599088e-06
6.914425e-06
6.13644823e-06
5.4571667e-06
4.86331107e-06
4.34329646e-06
3.8867666e-06
3.4865666e-06
3.13507442e-06
2.82717891e-06
2.55610285e-06
2.31683713e-06
2.10571705e-06
1.91956098e-06
1.75610595e-06
1.61146084e-06
1.48426448e-06
1.37166158e-06
1.2718478e-06
1.18374711e-06
1.10560725e-06
1.03640929e-06
9.74840165e-07
9.20236525e-07
8.71782369e-07
8.28704503e-07
7.90216892e-07
7.55923993e-07
7.25828453e-07
6.99518037e-07
6.76574981e-07
6.56690136e-07
6.39543444e-07
6.24821532e-07
6.12210648e-07
6.01415078e-07
5.92193032e-07
5.84409653e-07
5.7803065e-07
5.73086115e-07
5.6963114e-07
5.67710543e-07
5.67322647e-07
5.68404485e-07
5.70852513e-07
5.74594449e-07
5.79791171e-07
5.84892235e-07
5.90646597e-07
5.96775111e-07
6.03039599e-07
6.09265532e-07
6.15327975e-07
6.21137008e-07
6.26630357e-07
6.31770824e-07
6.36545915e-07
6.40968304e-07
6.45076287e-07
6.48933291e-07
6.52624963e-07
6.56251866e-07
6.59916492e-07
6.63707723e-07
6.6766121e-07
6.71609483e-07
6.75554919e-07
6.79390117e-07
6.82994218e-07
6.86262075e-07
6.89118465e-07
6.91522657e-07
6.93466205e-07
6.9496702e-07
6.96062781e-07
6.96805713e-07
6.97260029e-07
6.97501414e-07
6.97613871e-07
6.74358594e-05
5.46949176e-05
5.03558531e-05
5.19604157e-05
5.92501402e-05
7.61188453e-05
0.000101901901
0.000129388052
0.000153789844
0.000173723045
0.000189808762
0.00020369981
0.000217043324
0.00023083174
0.000245209755
0.000259793823
0.000274121876
0.000287888608
0.000301015212
0.000313697927
0.000326278837
0.000339043758
0.000352175962
0.000365726684
0.000379672464
0.000393892083
0.000408271967
0.000422661731
0.00043701967
0.000451335391
0.000465631101
0.000479947637
0.000494337691
0.000508835797
0.000523436831
0.000538099764
0.000552762651
0.000567368472
0.000581864289
0.000596214706
0.000610405646
0.000624438877
0.000638330765
0.000652076472
0.000665711803
0.000679235263
0.00069266526
0.000706023029
0.000719331351
0.000732613622
0.000745895871
0.000759209832
0.000772587632
0.000786065601
0.000799673727
0.000813446668
0.000827411884
0.000841594065
0.000856011921
0.000870676964
0.000885604051
0.000900804943
0.000916303938
0.000932114406
0.000948268955
0.000964795893
0.000981726463
0.00099909367
0.00101693785
0.00103529245
0.00105419761
0.00107368632
0.00109379199
0.00111454189
0.00113595974
0.00115807072
0.00118089128
0.00120444212
0.0012287372
0.00125379359
0.0012796261
0.00130624597
0.00133366119
0.0013618803
0.0013909072
0.00142075254
0.00145141539
0.00148289687
0.00151519912
0.00154832273
0.00158227
0.00161704414
0.00165265229
0.0016891068
0.00172642697
0.00176463814
0.00180377336
0.00184388877
0.00188501132
0.0019272196
0.00197058707
0.00201519344
0.00206112934
0.00210849605
0.00215740453
0.00220798336
0.00226039939
0.00231485747
0.00237159915
0.00243091135
0.00249312408
0.00255863827
0.0026279248
0.00270152631
0.00278004516
0.0028641184
0.00295439286
0.00305142394
0.00315552612
0.00326655008
0.00338356614
0.00350452882
0.00362603801
0.00374348461
0.00385135358
0.00394432698
0.00401804737
0.00407015076
0.00409982694
0.00410760824
0.00409492897
0.0040638671
0.00401596924
0.00395297343
0.0038768674
0.00378828131
0.00368803095
0.00357589187
0.00345174811
0.00331490251
0.00316420683
0.002998974
0.00282095959
0.00263479323
0.00244619064
0.00225969077
0.00207839513
0.00190435739
0.00173884147
0.00158258586
0.00143600494
0.00129918078
0.0011718758
0.00105428817
0.000946133401
0.000847030037
0.000756529823
0.000674173395
0.000599469993
0.00053192074
0.000471027016
0.000416296444
0.000367247824
0.000323415037
0.00028435014
0.000249625896
0.000218837711
0.000191605029
0.00016757214
0.000146408588
0.000127809107
0.000111493117
9.72035248e-05
8.47039494e-05
7.3799567e-05
6.42907951e-05
5.60080759e-05
4.88000811e-05
4.25322645e-05
3.70854028e-05
3.23542426e-05
2.82461618e-05
2.46798072e-05
2.15838625e-05
1.88960652e-05
1.6562267e-05
1.45353345e-05
1.27740781e-05
1.12425947e-05
9.9101144e-06
8.75003205e-06
7.73945126e-06
6.85796943e-06
6.08846289e-06
5.41617928e-06
4.82823185e-06
4.31359773e-06
3.861685e-06
3.46521732e-06
3.11674682e-06
2.81155626e-06
2.54312219e-06
2.30599688e-06
2.09655243e-06
1.91178174e-06
1.74962287e-06
1.60626503e-06
1.48011239e-06
1.36829464e-06
1.26913393e-06
1.18170558e-06
1.10421775e-06
1.03554316e-06
9.74404143e-07
9.20183962e-07
8.72108358e-07
8.29374172e-07
7.91191871e-07
7.57145351e-07
7.27222576e-07
7.01074212e-07
6.78267034e-07
6.58481706e-07
6.41417572e-07
6.2676642e-07
6.14212512e-07
6.03462673e-07
5.94282399e-07
5.86542709e-07
5.80208824e-07
5.75306346e-07
5.71884644e-07
5.69981619e-07
5.6959006e-07
5.70644302e-07
5.73040596e-07
5.76706372e-07
5.81955339e-07
5.86834474e-07
5.92490939e-07
5.98522068e-07
6.04685302e-07
6.10811274e-07
6.16779763e-07
6.22503303e-07
6.27920419e-07
6.32993772e-07
6.37710197e-07
6.42081331e-07
6.46144089e-07
6.49960151e-07
6.53613028e-07
6.57200804e-07
6.60823191e-07
6.64565039e-07
6.6845294e-07
6.72347602e-07
6.76231448e-07
6.80001041e-07
6.83539772e-07
6.86745544e-07
6.8954507e-07
6.91898613e-07
6.93797978e-07
6.95260841e-07
6.96324379e-07
6.97040243e-07
6.97472237e-07
6.97696171e-07
6.97797887e-07
0.000102075488
8.18830358e-05
6.7142075e-05
5.58734826e-05
4.70450162e-05
4.00798554e-05
3.45896961e-05
3.02560236e-05
2.6841784e-05
2.41186687e-05
2.19177803e-05
2.01286644e-05
1.86629293e-05
1.74443512e-05
1.64199874e-05
1.55541592e-05
1.48177952e-05
1.41853536e-05
1.36389322e-05
1.31655183e-05
1.2753292e-05
1.23920718e-05
1.20746121e-05
1.17952213e-05
1.15484077e-05
1.13294596e-05
1.11349024e-05
1.09617214e-05
1.0807469e-05
1.06699446e-05
1.05471665e-05
1.04374295e-05
1.03397009e-05
1.02530601e-05
1.01769756e-05
1.0111679e-05
1.0058398e-05
1.00260842e-05
1.01721525e-05
1.63641817e-05
0.000106552391
8.87690083e-05
7.51650674e-05
6.44333541e-05
5.57542741e-05
4.86084457e-05
4.26894186e-05
3.77775288e-05
3.3709205e-05
3.03229408e-05
2.74818943e-05
2.50900609e-05
2.30742584e-05
2.13645753e-05
1.99036426e-05
1.86498177e-05
1.75710955e-05
1.66377988e-05
1.58258643e-05
1.51174564e-05
1.44979234e-05
1.39535888e-05
1.34735363e-05
1.30494709e-05
1.26742289e-05
1.2340995e-05
1.20444349e-05
1.17800822e-05
1.15441454e-05
1.13334549e-05
1.11452098e-05
1.09767169e-05
1.08261776e-05
1.06921372e-05
1.05735334e-05
1.04700605e-05
1.03828581e-05
1.03138921e-05
1.02911485e-05
1.10087773e-05
0.000110513301
9.45491406e-05
8.17338008e-05
7.137588e-05
6.28604757e-05
5.57279486e-05
4.96692493e-05
4.44908653e-05
4.00580221e-05
3.62543988e-05
3.29777653e-05
3.01467551e-05
2.76981251e-05
2.55762425e-05
2.37304248e-05
2.21189196e-05
2.0708833e-05
1.94727185e-05
1.83856815e-05
1.74266821e-05
1.65794611e-05
1.58299145e-05
1.51648899e-05
1.45734231e-05
1.40469404e-05
1.35777478e-05
1.31590535e-05
1.27847126e-05
1.24493625e-05
1.21486439e-05
1.18791312e-05
1.16374832e-05
1.14207756e-05
1.12265619e-05
1.10529545e-05
1.08983192e-05
1.07619514e-05
1.06423929e-05
1.05414031e-05
1.05168995e-05
0.000111689168
9.68521811e-05
8.45700864e-05
7.44437276e-05
6.6025609e-05
5.89432343e-05
5.29093089e-05
4.77177306e-05
4.32192689e-05
3.93038639e-05
3.58836331e-05
3.28863238e-05
3.02546818e-05
2.79420824e-05
2.59069449e-05
2.41118552e-05
2.25258015e-05
2.11232167e-05
1.98811023e-05
1.87789997e-05
1.77999674e-05
1.6929466e-05
1.61543553e-05
1.54631839e-05
1.48461238e-05
1.42949256e-05
1.38021887e-05
1.33611706e-05
1.29658697e-05
1.26111116e-05
1.22925511e-05
1.20063391e-05
1.17489828e-05
1.1517515e-05
1.13089998e-05
1.11206158e-05
1.09488981e-05
1.07915741e-05
1.06433281e-05
1.04991071e-05
0.000111492723
9.63342536e-05
8.37827252e-05
7.35006287e-05
6.50134933e-05
5.79159267e-05
5.1893893e-05
4.67245045e-05
4.22498714e-05
3.83600673e-05
3.49689027e-05
3.20019e-05
2.94005124e-05
2.71194011e-05
2.51194028e-05
2.33621855e-05
2.18147884e-05
2.04509759e-05