/*--------------------------------*- C++ -*----------------------------------*\
  =========                 |
  \\      /  F ield         | OpenFOAM: The Open Source CFD Toolbox
   \\    /   O peration     | Website:  https://openfoam.org
    \\  /    A nd           | Version:  6
     \\/     M anipulation  |
\*---------------------------------------------------------------------------*/
FoamFile
{
    version     2.0;
    format      ascii;
    class       volScalarField;
    location    "25000";
    object      H2CN;
}
// * * * * * * * * * * * * * * * * * * * * * * * * * * * * * * * * * * * * * //

dimensions      [0 0 0 0 0 0 0];

internalField   nonuniform List<scalar> 
44870
(
3.87045307e-106
1.59056605e-104
1.8551829e-102
2.3022346e-100
2.89650235e-98
3.69069847e-96
4.76582033e-94
6.24098369e-92
8.29428153e-90
1.11946503e-87
1.53546404e-85
2.14145684e-83
3.03822169e-81
4.38658064e-79
6.44627266e-77
9.64315544e-75
1.46831568e-72
2.27546385e-70
3.58783985e-68
5.75452715e-66
9.3840594e-64
1.55538004e-61
2.61881989e-59
4.47752735e-57
7.76906102e-55
1.36751066e-52
2.44004916e-50
4.41163338e-48
8.07386233e-46
1.4949634e-43
2.79595606e-41
5.27703963e-39
1.00213369e-36
1.91082862e-34
3.6356881e-32
6.8608673e-30
1.26495628e-27
2.23390339e-25
3.55949526e-23
4.80564123e-21
1.8823358e-106
1.13539857e-104
1.32571831e-102
1.64024884e-100
2.06721431e-98
2.65269448e-96
3.4728719e-94
4.64686828e-92
6.36491853e-90
8.93470852e-88
1.28640518e-85
1.900193e-83
2.87928854e-81
4.47319852e-79
7.11800542e-77
1.15907843e-74
1.92846025e-72
3.27480974e-70
5.66631199e-68
9.98077254e-66
1.78670334e-63
3.24891469e-61
5.99105649e-59
1.12036306e-56
2.12100846e-54
4.06778372e-52
7.88701575e-50
1.54827861e-47
3.06940854e-45
6.16020369e-43
1.24728273e-40
2.55685116e-38
5.2809315e-36
1.10442323e-33
2.3210475e-31
4.92773324e-29
1.04204203e-26
2.20026613e-24
4.34644194e-22
8.17485079e-20
1.14451452e-105
7.73207207e-105
5.51861449e-103
6.77776661e-101
8.78395893e-99
1.19278197e-96
1.70329089e-94
2.56035452e-92
4.04332897e-90
6.68473552e-88
1.15092925e-85
2.05177654e-83
3.76560752e-81
7.07857966e-79
1.35629178e-76
2.64206546e-74
5.21103006e-72
1.03954998e-69
2.09139896e-67
4.24289239e-65
8.6628522e-63
1.7813787e-60
3.68147662e-58
7.66143784e-56
1.6009564e-53
3.37062543e-51
7.12099933e-49
1.51718158e-46
3.2414143e-44
6.99489187e-42
1.51233868e-39
3.30906017e-37
7.24437905e-35
1.60960604e-32
3.57570212e-30
8.08614193e-28
1.82635542e-25
4.23395543e-23
9.42787452e-21
2.15870367e-18
1.10589001e-105
3.24673757e-105
1.32400815e-103
2.00099232e-101
3.58325404e-99
7.10885208e-97
1.51303761e-94
3.36551806e-92
7.67662009e-90
1.77329874e-87
4.11538273e-85
9.54844188e-83
2.20787893e-80
5.08140142e-78
1.16267959e-75
2.64539879e-73
5.98377238e-71
1.34674691e-68
3.01563195e-66
6.72429472e-64
1.49404374e-61
3.3103289e-59
7.31600307e-57
1.61474763e-54
3.55836257e-52
7.84228451e-50
1.72725397e-47
3.80928796e-45
8.40052344e-43
1.85798501e-40
4.11033795e-38
9.13377472e-36
2.03009586e-33
4.53948544e-31
1.01526399e-28
2.28344606e-26
5.12335122e-24
1.15158036e-21
2.50647899e-19
5.31241042e-17
7.00409742e-105
9.36567145e-105
1.17648009e-103
3.5178504e-101
1.13564709e-98
3.51727179e-96
1.04598579e-93
2.99596514e-91
8.29359539e-89
2.22651935e-86
5.81545573e-84
1.48219593e-81
3.69634157e-79
9.04169277e-77
2.17424237e-74
5.15005938e-72
1.20376786e-69
2.78095345e-67
6.35893072e-65
1.44101292e-62
3.23987108e-60
7.23439411e-58
1.60572039e-55
3.54547588e-53
7.79311988e-51
1.70635835e-48
3.72376024e-46
8.10177882e-44
1.75846706e-41
3.80825952e-39
8.23309308e-37
1.77712886e-34
3.83135585e-32
8.25089089e-30
1.77542236e-27
3.81736747e-25
8.20352367e-23
1.76193866e-20
3.78258455e-18
8.16035441e-16
1.55841979e-19
7.09623113e-19
1.9876107e-18
4.60781059e-18
9.89896816e-18
2.46098256e-17
6.69525316e-17
1.71902007e-16
3.93761897e-16
8.09753952e-16
1.51712587e-15
2.64102702e-15
4.32433698e-15
6.74498688e-15
1.0100888e-14
1.46182655e-14
2.05601351e-14
2.81961088e-14
3.78709672e-14
4.99037936e-14
6.4708464e-14
8.26930153e-14
1.04330545e-13
1.30148455e-13
1.60718924e-13
1.96711497e-13
2.38704361e-13
2.87675041e-13
3.44216448e-13
4.09613853e-13
4.84709749e-13
5.70743241e-13
6.69056054e-13
7.80709511e-13
9.07488144e-13
1.050437e-12
1.21160609e-12
1.39218997e-12
1.59437514e-12
1.81981705e-12
2.07099054e-12
2.3503185e-12
2.66058786e-12
3.00432645e-12
3.38522142e-12
3.80570909e-12
4.26876025e-12
4.77763948e-12
5.33606855e-12
5.94840463e-12
6.61951028e-12
7.35480349e-12
8.15977731e-12
9.04001568e-12
1.0000589e-11
1.10462148e-11
1.21808582e-11
1.34080508e-11
1.47307245e-11
1.61512862e-11
1.76713888e-11
1.92915425e-11
2.10112098e-11
2.28283592e-11
2.47403294e-11
2.67425882e-11
2.88288748e-11
3.09875948e-11
3.3199107e-11
3.54287938e-11
3.76207495e-11
3.96888747e-11
4.15094724e-11
4.29177838e-11
4.37160816e-11
4.36983106e-11
4.26999795e-11
4.06629496e-11
3.76768304e-11
3.39799586e-11
2.99035927e-11
2.57848026e-11
2.18929542e-11
1.83977286e-11
1.53751681e-11
1.28334658e-11
1.07406649e-11
9.04626373e-12
7.694831e-12
6.63357713e-12
5.81562532e-12
5.20104609e-12
4.75640314e-12
4.45425122e-12
4.27245028e-12
4.19355349e-12
4.20430953e-12
4.2953549e-12
4.46097512e-12
4.69909985e-12
5.01103287e-12
5.40135024e-12
5.87781448e-12
6.45164446e-12
7.13687122e-12
7.95149201e-12
8.91798105e-12
1.00634264e-11
1.14226061e-11
1.30373537e-11
1.49591238e-11
1.72510477e-11
1.9991794e-11
2.32811465e-11
2.72424257e-11
3.20250729e-11
3.78164122e-11
4.48550417e-11
5.34467596e-11
6.39927154e-11
7.70602901e-11
9.3488336e-11
1.14517218e-10
1.418576e-10
1.77472517e-10
2.22791914e-10
2.77523716e-10
3.38834323e-10
4.01752082e-10
4.60637059e-10
5.10718653e-10
5.48970414e-10
5.74341328e-10
5.87292915e-10
5.89070666e-10
5.81419769e-10
5.66010307e-10
5.44138126e-10
5.15856301e-10
4.79665724e-10
4.3588905e-10
3.81411071e-10
3.13191994e-10
2.40765418e-10
1.81142266e-10
1.3422162e-10
9.77629836e-11
7.03269966e-11
5.01493019e-11
3.60684442e-11
2.60068829e-11
1.87733164e-11
1.3584105e-11
9.85377652e-12
7.16494292e-12
5.22300591e-12
3.81733784e-12
2.79732291e-12
2.05520827e-12
1.51384168e-12
1.11785753e-12
8.27473246e-13
6.1399387e-13
4.56664656e-13
3.40435174e-13
2.54364048e-13
1.90479138e-13
1.42956089e-13
1.07527776e-13
8.10601721e-14
6.12459577e-14
4.63825865e-14
3.52112832e-14
2.67999098e-14
2.04528982e-14
1.56512439e-14
1.20133153e-14
9.25250137e-15
7.15358722e-15
5.55512085e-15
4.33577984e-15
3.40420877e-15
2.69148767e-15
2.14554669e-15
1.72696618e-15
1.40580194e-15
1.15925577e-15
9.69983016e-16
8.24784174e-16
7.13551098e-16
6.28410534e-16
5.63572317e-16
5.14325571e-16
4.77252283e-16
4.49559964e-16
4.29062368e-16
4.141095e-16
4.03424609e-16
3.96010169e-16
3.90994942e-16
3.8779542e-16
3.85921867e-16
3.85079183e-16
3.84795787e-16
3.84973662e-16
3.85376747e-16
3.85985785e-16
3.8668402e-16
3.87031938e-16
3.87125383e-16
3.8677627e-16
3.85985459e-16
3.8462534e-16
3.82635372e-16
3.8006195e-16
3.76870821e-16
3.73019069e-16
3.68060103e-16
3.62887513e-16
3.57974864e-16
3.52721041e-16
3.47361162e-16
3.41984609e-16
3.3659747e-16
3.31159171e-16
3.25621695e-16
3.19940038e-16
3.14085084e-16
3.08108185e-16
3.02152145e-16
2.96410065e-16
2.91080214e-16
2.86328139e-16
2.8225512e-16
2.78891753e-16
2.76223778e-16
2.74233352e-16
2.72834988e-16
2.71624847e-16
2.70585302e-16
2.69666128e-16
2.68767262e-16
2.67790709e-16
2.6665668e-16
2.65301987e-16
2.63678129e-16
2.61753728e-16
2.59521537e-16
2.57006375e-16
2.54273147e-16
2.5143333e-16
2.48648615e-16
2.46129971e-16
2.44129438e-16
2.429187e-16
2.4274346e-16
2.43543311e-16
2.45506929e-16
2.48569162e-16
2.52545993e-16
2.57167988e-16
2.62121837e-16
2.67097054e-16
2.71826015e-16
2.76112047e-16
2.79842349e-16
2.82984228e-16
2.85562679e-16
2.87599077e-16
2.88953322e-16
3.21348613e-18
1.28902158e-17
3.19441103e-17
6.81366406e-17
1.40899471e-16
3.9578018e-16
1.15466526e-15
2.91058649e-15
6.28076109e-15
1.19994748e-14
2.08396643e-14
3.36952578e-14
5.1451967e-14
7.51448545e-14
1.05778006e-13
1.44378308e-13
1.92025677e-13
2.49636294e-13
3.18346966e-13
3.98910936e-13
4.92340484e-13
5.9941533e-13
7.20826739e-13
8.57457355e-13
1.00948146e-12
1.17779997e-12
1.36228331e-12
1.56361846e-12
1.7817758e-12
2.01729938e-12
2.2700139e-12
2.54010693e-12
2.82723989e-12
3.13116009e-12
3.45151965e-12
3.78792105e-12
4.14046615e-12
4.50921099e-12
4.8952362e-12
5.2994123e-12
5.72362295e-12
6.16922602e-12
6.63821236e-12
7.13174829e-12
7.65288208e-12
8.20354122e-12
8.7869981e-12
9.40745738e-12
1.00698319e-11
1.07793083e-11
1.15407722e-11
1.23584558e-11
1.32356947e-11
1.41751908e-11
1.5179378e-11
1.62510727e-11
1.73936797e-11
1.86111402e-11
1.99071291e-11
2.12841772e-11
2.27427652e-11
2.42810994e-11
2.58952925e-11
2.75799017e-11
2.93280551e-11
3.11303334e-11
3.29733101e-11
3.4835952e-11
3.66858696e-11
3.84743012e-11
4.0131139e-11
4.15602205e-11
4.26376847e-11
4.3215143e-11
4.31370237e-11
4.22665322e-11
4.0531524e-11
3.79642855e-11
3.47128262e-11
3.10186558e-11
2.71617343e-11
2.3397055e-11
1.99126757e-11
1.68180001e-11
1.41547563e-11
1.19175662e-11
1.00742065e-11
8.58033303e-12
7.38924706e-12
6.45697663e-12
5.74424467e-12
5.21719809e-12
4.84707132e-12
4.60988134e-12
4.48605115e-12
4.46009808e-12
4.52037284e-12
4.65892962e-12
4.87141129e-12
5.15715804e-12
5.51884666e-12
5.96248036e-12
6.49733546e-12
7.13617033e-12
7.89438678e-12
8.791563e-12
9.85181583e-12
1.11041754e-11
1.2585742e-11
1.434081e-11
1.64229833e-11
1.88983082e-11
2.1849854e-11
2.53822525e-11
2.9623957e-11
3.47291963e-11
4.08926683e-11
4.83633556e-11
5.74601005e-11
6.86000266e-11
8.23775025e-11
9.96672275e-11
1.21740847e-10
1.50302204e-10
1.87226243e-10
2.33743639e-10
2.89307878e-10
3.50875621e-10
4.13421092e-10
4.71400589e-10
5.20223531e-10
5.57037363e-10
5.80949909e-10
5.92514621e-10
5.92974287e-10
5.84093822e-10
5.67491459e-10
5.44379757e-10
5.14520906e-10
4.77105843e-10
4.32158709e-10
3.76319654e-10
3.06884702e-10
2.35608441e-10
1.77486999e-10
1.31578032e-10
9.59115442e-11
6.90806624e-11
4.93580948e-11
3.55438545e-11
2.56513242e-11
1.85323696e-11
1.34235259e-11
9.74617319e-12
7.09224694e-12
5.17349731e-12
3.78336184e-12
2.7738506e-12
2.038898e-12
1.50245218e-12
1.10986894e-12
8.21846563e-13
6.10015612e-13
4.53841722e-13
3.38425156e-13
2.52928197e-13
1.89450203e-13
1.42216592e-13
1.06994879e-13
8.06752362e-14
6.09673204e-14
4.61805443e-14
3.506461e-14
2.66935106e-14
2.03756591e-14
1.55949448e-14
1.19724662e-14
9.22298536e-15
7.13237878e-15
5.54001333e-15
4.32516258e-15
3.39690017e-15
2.68661601e-15
2.14247105e-15
1.72521926e-15
1.40503877e-15
1.15921267e-15
9.70459906e-16
8.25639654e-16
7.14687907e-16
6.29731576e-16
5.65031863e-16
5.15863589e-16
4.78844063e-16
4.51181542e-16
4.30688356e-16
4.15722997e-16
4.05022219e-16
3.9759327e-16
3.92548149e-16
3.8931834e-16
3.87409471e-16
3.86539157e-16
3.86228423e-16
3.86363082e-16
3.86731436e-16
3.87307854e-16
3.879806e-16
3.88294204e-16
3.88348113e-16
3.87972225e-16
3.8715517e-16
3.8577856e-16
3.83762189e-16
3.81159497e-16
3.77945021e-16
3.74074756e-16
3.69063893e-16
3.63867978e-16
3.58957807e-16
3.53663611e-16
3.4826997e-16
3.42863138e-16
3.37447154e-16
3.31981583e-16
3.26417882e-16
3.20712068e-16
3.14835997e-16
3.08841011e-16
3.02869443e-16
2.97113806e-16
2.9177088e-16
2.8700482e-16
2.829163e-16
2.79535871e-16
2.76849472e-16
2.74840733e-16
2.73433702e-16
2.72199143e-16
2.71140482e-16
2.70205396e-16
2.69291196e-16
2.6829978e-16
2.67151993e-16
2.65785078e-16
2.6415065e-16
2.62217272e-16
2.59977587e-16
2.57456337e-16
2.5471842e-16
2.5187541e-16
2.49089202e-16
2.46571042e-16
2.44573112e-16
2.43366487e-16
2.43197497e-16
2.44000752e-16
2.45972244e-16
2.49039601e-16
2.53018936e-16
2.57640919e-16
2.62592456e-16
2.67563474e-16
2.72286928e-16
2.76566745e-16
2.80290643e-16
2.83426337e-16
2.85999179e-16
2.88030933e-16
2.89382776e-16
1.20811498e-16
4.39124341e-16
9.96164806e-16
1.99612569e-15
4.04943354e-15
1.40140191e-14
4.16071111e-14
9.59071661e-14
1.8357097e-13
3.08949917e-13
4.73965885e-13
6.80002136e-13
9.2719796e-13
1.21513247e-12
1.54165346e-12
1.90371564e-12
2.29722935e-12
2.71732962e-12
3.15948854e-12
3.61914624e-12
4.09236149e-12
4.57501233e-12
5.06296359e-12
5.55212623e-12
6.03847138e-12
6.51905964e-12
6.9910539e-12
7.45348989e-12
7.90652488e-12
8.35090806e-12
8.78743935e-12
9.21675109e-12
9.63935793e-12
1.00562994e-11
1.04691827e-11
1.08813808e-11
1.12978723e-11
1.17253145e-11
1.21705588e-11
1.26392678e-11
1.3135408e-11
1.36608298e-11
1.42167394e-11
1.48034002e-11
1.54247832e-11
1.60846682e-11
1.67895468e-11
1.75461689e-11
1.83591462e-11
1.92292243e-11
2.01529337e-11
2.11240748e-11
2.21357888e-11
2.31829357e-11
2.42637877e-11
2.53804344e-11
2.65372723e-11
2.773808e-11
2.89830577e-11
3.02672041e-11
3.15808309e-11
3.29114886e-11
3.42460679e-11
3.55715625e-11
3.68732472e-11
3.81321363e-11
3.93207363e-11
4.04008341e-11
4.13212363e-11
4.20183741e-11
4.24170707e-11
4.24348549e-11
4.1989637e-11
4.10105832e-11
3.94574204e-11
3.73337282e-11
3.47051786e-11
3.16944318e-11
2.84610688e-11
2.51755671e-11
2.1991754e-11
1.90274874e-11
1.63579572e-11
1.40185646e-11
1.20142506e-11
1.03298695e-11
8.9397544e-12
7.81389182e-12
6.92218089e-12
6.23627839e-12
5.72999537e-12
5.37961165e-12
5.1639169e-12
5.06446628e-12
5.06587506e-12
5.1560404e-12
5.32627833e-12
5.57147302e-12
5.89016383e-12
6.28480712e-12
6.76115269e-12
7.32846765e-12
7.99948907e-12
8.79042601e-12
9.71965733e-12
1.08102222e-11
1.20899832e-11
1.35925267e-11
1.53600066e-11
1.74422131e-11
1.98972197e-11
2.27982174e-11
2.62378651e-11
3.0331919e-11
3.52203718e-11
4.10673207e-11
4.80847032e-11
5.65456628e-11
6.67986397e-11
7.92951406e-11
9.46902041e-11
1.13933486e-10
1.38349949e-10
1.69597068e-10
2.09322646e-10
2.58303318e-10
3.15460697e-10
3.77340097e-10
4.38844286e-10
4.94673467e-10
5.40629682e-10
5.74222411e-10
5.94902451e-10
6.03409617e-10
6.00949689e-10
5.89344482e-10
5.70068867e-10
5.44130583e-10
5.10497065e-10
4.70619475e-10
4.23290678e-10
3.63426109e-10
2.93054215e-10
2.24839476e-10
1.69711328e-10
1.25962593e-10
9.19877064e-11
6.64390401e-11
4.7669511e-11
3.44160517e-11
2.48848466e-11
1.8012691e-11
1.30779129e-11
9.51440392e-12
6.93547931e-12
5.06655325e-12
3.70986708e-12
2.72301543e-12
2.00353906e-12
1.47773859e-12
1.09252218e-12
8.09620692e-13
6.0136653e-13
4.47701154e-13
3.34050663e-13
2.49801813e-13
1.87208873e-13
1.40605113e-13
1.05833197e-13
7.98358277e-14
6.03595342e-14
4.57397189e-14
3.47445171e-14
2.64612996e-14
2.02070803e-14
1.54719759e-14
1.18832775e-14
9.15854824e-15
7.08608767e-15
5.50704978e-15
4.30200547e-15
3.38096959e-15
2.67601556e-15
2.13580295e-15
1.72145233e-15
1.40341093e-15
1.15915708e-15
9.71553473e-16
8.27566833e-16
7.17215979e-16
6.32707004e-16
5.68255987e-16
5.19275511e-16
4.82368077e-16
4.54755824e-16
4.34264471e-16
4.19281641e-16
4.08553612e-16
4.01083683e-16
3.9597306e-16
3.92671904e-16
3.90691441e-16
3.89758468e-16
3.89384227e-16
3.89430969e-16
3.89718225e-16
3.90225925e-16
3.90837093e-16
3.91075039e-16
3.91046253e-16
3.90608828e-16
3.8973831e-16
3.88321172e-16
3.86246625e-16
3.83579133e-16
3.80312799e-16
3.76407683e-16
3.71491022e-16
3.66228182e-16
3.61115767e-16
3.55742493e-16
3.50278786e-16
3.44804056e-16
3.39321681e-16
3.33794806e-16
3.28173933e-16
3.22414909e-16
3.16490468e-16
3.10453573e-16
3.04446779e-16
2.98660529e-16
2.93288312e-16
2.88491401e-16
2.84369165e-16
2.8095182e-16
2.78225514e-16
2.76176964e-16
2.74752597e-16
2.73463157e-16
2.72363443e-16
2.71393975e-16
2.7044633e-16
2.69422408e-16
2.68244516e-16
2.66850845e-16
2.65193246e-16
2.63240142e-16
2.60983927e-16
2.58449165e-16
2.55700742e-16
2.52850448e-16
2.5006065e-16
2.47543227e-16
2.45550718e-16
2.44352708e-16
2.44176558e-16
2.4500796e-16
2.46997483e-16
2.50076067e-16
2.54061063e-16
2.58683254e-16
2.63629963e-16
2.68591993e-16
2.73303534e-16
2.77569817e-16
2.81279698e-16
2.84401785e-16
2.86962173e-16
2.88983416e-16
2.90328972e-16
4.84670704e-15
1.47569713e-14
3.0374553e-14
5.46694983e-14
1.07914698e-13
4.97840855e-13
1.32893768e-12
2.52350185e-12
3.93990729e-12
5.44823027e-12
6.95545274e-12
8.43094793e-12
9.85437807e-12
1.11993488e-11
1.24342848e-11
1.35361925e-11
1.44913691e-11
1.53007143e-11
1.59809093e-11
1.65544605e-11
1.70383488e-11
1.74404889e-11
1.77653032e-11
1.80173377e-11
1.82064238e-11
1.83461568e-11
1.84566608e-11
1.85615765e-11
1.86815759e-11
1.88264299e-11
1.89961309e-11
1.91857961e-11
1.93921467e-11
1.96170018e-11
1.9868866e-11
2.01635254e-11
2.05208665e-11
2.09563108e-11
2.14724308e-11
2.20588443e-11
2.26980067e-11
2.33735715e-11
2.40760511e-11
2.48042724e-11
2.55715712e-11
2.63924784e-11
2.72812153e-11
2.82396963e-11
2.92532066e-11
3.0294473e-11
3.13332081e-11
3.23453848e-11
3.33186405e-11
3.42532447e-11
3.51591867e-11
3.6049976e-11
3.69337485e-11
3.78063246e-11
3.86503223e-11
3.9439701e-11
4.01475895e-11
4.07518327e-11
4.123742e-11
4.15914575e-11
4.1799598e-11
4.18399602e-11
4.16818989e-11
4.12918133e-11
4.06365265e-11
3.96901099e-11
3.84379468e-11
3.68807203e-11
3.50360725e-11
3.29385052e-11
3.06387372e-11
2.81994654e-11
2.56940692e-11
2.31960441e-11
2.07713532e-11
1.84755445e-11
1.63503198e-11
1.44232735e-11
1.27088399e-11
1.12103534e-11
9.92360486e-12
8.84001161e-12
7.94932941e-12
7.24063265e-12
6.70243013e-12
6.32214326e-12
6.08560591e-12
5.97753046e-12
5.98248503e-12
6.08627661e-12
6.277122e-12
6.54637844e-12
6.88899589e-12
7.30384374e-12
7.79395538e-12
8.3667372e-12
9.03292379e-12
9.80721978e-12
1.07080134e-11
1.175692e-11
1.29766634e-11
1.43953744e-11
1.60472911e-11
1.7973565e-11
2.02240492e-11
2.28568079e-11
2.59365326e-11
2.95476601e-11
3.37988709e-11
3.88241375e-11
4.47811263e-11
5.18464747e-11
6.02622157e-11
7.0341867e-11
8.24808686e-11
9.7178311e-11
1.15183973e-10
1.37544911e-10
1.65617023e-10
2.0089801e-10
2.44611952e-10
2.96822825e-10
3.5573819e-10
4.17406538e-10
4.7674556e-10
5.28891587e-10
5.70236097e-10
5.98775648e-10
6.14477225e-10
6.18319603e-10
6.11355647e-10
5.95545388e-10
5.7203534e-10
5.41458493e-10
5.03180656e-10
4.59612261e-10
4.06624168e-10
3.42299414e-10
2.72779046e-10
2.09679735e-10
1.58647145e-10
1.17966089e-10
8.64140638e-11
6.26825483e-11
4.52270575e-11
3.27680472e-11
2.37608286e-11
1.72502832e-11
1.25731122e-11
9.17564427e-12
6.70557537e-12
4.90922742e-12
3.60147838e-12
2.64788758e-12
1.95119248e-12
1.44109445e-12
1.06676755e-12
7.91448413e-13
5.88497657e-13
4.38556066e-13
3.275299e-13
2.45137616e-13
1.83862538e-13
1.38197469e-13
1.04096463e-13
7.85801699e-14
5.94498815e-14
4.50796431e-14
3.42650207e-14
2.61134279e-14
1.99533164e-14
1.52875118e-14
1.17495667e-14
9.06196137e-15
7.01672269e-15
5.45768323e-15
4.26735504e-15
3.35716775e-15
2.6602233e-15
2.12592166e-15
1.71592298e-15
1.40108411e-15
1.15919241e-15
9.7332587e-16
8.30592151e-16
7.21123758e-16
6.37257925e-16
5.73212217e-16
5.2451755e-16
4.87765709e-16
4.60213589e-16
4.39719544e-16
4.24719272e-16
4.13950304e-16
4.06404492e-16
4.01205847e-16
3.97788518e-16
3.95707331e-16
3.94667387e-16
3.94192835e-16
3.9412351e-16
3.94278201e-16
3.94688356e-16
3.95188428e-16
3.95313775e-16
3.95170428e-16
3.94634186e-16
3.93689111e-16
3.92195469e-16
3.9003862e-16
3.87276687e-16
3.83930426e-16
3.7996717e-16
3.7512785e-16
3.69799996e-16
3.64425406e-16
3.58925667e-16
3.53357147e-16
3.4777524e-16
3.42190219e-16
3.36567751e-16
3.30858651e-16
3.25016184e-16
3.19013847e-16
3.12909495e-16
3.06846494e-16
3.01012038e-16
2.95594507e-16
2.90750898e-16
2.86578178e-16
2.83105634e-16
2.80319482e-16
2.78210337e-16
2.76763193e-16
2.7538675e-16
2.74226874e-16
2.73206225e-16
2.72208031e-16
2.71134825e-16
2.6991133e-16
2.6847716e-16
2.66784487e-16
2.64801498e-16
2.62520206e-16
2.599649e-16
2.57200453e-16
2.5433899e-16
2.51543599e-16
2.49027144e-16
2.47042744e-16
2.45857421e-16
2.45676324e-16
2.46547408e-16
2.48561678e-16
2.51656636e-16
2.55649983e-16
2.60272396e-16
2.65211761e-16
2.70160179e-16
2.74853661e-16
2.79099392e-16
2.82787957e-16
2.85889301e-16
2.88430614e-16
2.90435585e-16
2.9177077e-16
1.82602562e-13
3.82507154e-13
5.90709614e-13
8.80128294e-13
1.80720287e-12
1.24721636e-11
2.56910698e-11
3.60564986e-11
4.22492125e-11
4.498643e-11
4.5541693e-11
4.54920006e-11
4.51415479e-11
4.43223256e-11
4.29847363e-11
4.12555514e-11
3.9345855e-11
3.74737273e-11
3.58737173e-11
3.4610973e-11
3.35667856e-11
3.26022124e-11
3.16515164e-11
3.07279783e-11
2.98846756e-11
2.91858113e-11
2.86994921e-11
2.84738456e-11
2.84698345e-11
2.85813715e-11
2.87128492e-11
2.88219448e-11
2.89209269e-11
2.90553981e-11
2.92841809e-11
2.9669674e-11
3.02502667e-11
3.0998519e-11
3.18298936e-11
3.26530384e-11
3.34102352e-11
3.40925629e-11
3.47257284e-11
3.53528068e-11
3.60275256e-11
3.67801827e-11
3.76037806e-11
3.84412721e-11
3.9209921e-11
3.98375579e-11
4.02869614e-11
4.05592619e-11
4.06823983e-11
4.06953929e-11
4.06342921e-11
4.05201251e-11
4.0349415e-11
4.00978877e-11
3.97345673e-11
3.92359927e-11
3.85947637e-11
3.78195864e-11
3.69279395e-11
3.59360345e-11
3.48537594e-11
3.36849308e-11
3.24308711e-11
3.10937979e-11
2.96788772e-11
2.81943199e-11
2.66508013e-11
2.50619851e-11
2.34448244e-11
2.18213202e-11
2.02167802e-11
1.86582717e-11
1.71692867e-11
1.57660137e-11
1.44568555e-11
1.32462852e-11
1.21366162e-11
1.1129185e-11
1.02253539e-11
9.42752108e-12
8.74012645e-12
8.1702242e-12
7.72643654e-12
7.41660804e-12
7.24451562e-12
7.2073971e-12
7.29580656e-12
7.49584446e-12
7.79226488e-12
8.17155194e-12
8.62388098e-12
9.14396232e-12
9.73134333e-12
1.03906758e-11
1.11319424e-11
1.19696765e-11
1.29226331e-11
1.40138452e-11
1.52699719e-11
1.67200526e-11
1.83916285e-11
2.03198036e-11
2.25488923e-11
2.51309818e-11
2.81268297e-11
3.16051973e-11
3.56367243e-11
4.0324128e-11
4.58010064e-11
5.22278299e-11
5.97855847e-11
6.86604083e-11
7.91460263e-11
9.16163498e-11
1.06530929e-10
1.24433027e-10
1.46201063e-10
1.72961775e-10
2.05998479e-10
2.46425041e-10
2.9479947e-10
3.50245898e-10
4.1023996e-10
4.70373929e-10
5.25791365e-10
5.72293807e-10
6.07034551e-10
6.28528763e-10
6.37464178e-10
6.35044997e-10
6.21889087e-10
6.00288513e-10
5.70623621e-10
5.35043243e-10
4.90466282e-10
4.39782804e-10
3.80162444e-10
3.13000041e-10
2.47893958e-10
1.91346904e-10
1.45117027e-10
1.08207023e-10
7.96300194e-11
5.8097062e-11
4.21887384e-11
3.06733563e-11
2.23275553e-11
1.62786528e-11
1.19360715e-11
8.74620164e-12
6.41268942e-12
4.7079188e-12
3.46228297e-12
2.55113033e-12
1.88361546e-12
1.3936904e-12
1.03338722e-12
7.67858395e-13
5.71768499e-13
4.26652017e-13
3.19031306e-13
2.3905148e-13
1.79491374e-13
1.35049378e-13
1.01823574e-13
7.6935534e-14
5.82575658e-14
4.42138939e-14
3.36357423e-14
2.56568747e-14
1.96196331e-14
1.50452118e-14
1.15739183e-14
8.93510323e-15
6.9256616e-15
5.39293171e-15
4.22196773e-15
3.32606017e-15
2.63966731e-15
2.1131564e-15
1.7088857e-15
1.3982538e-15
1.15947104e-15
9.75900357e-16
8.34816821e-16
7.2649156e-16
6.43433715e-16
5.79949839e-16
5.31634251e-16
4.95070878e-16
4.6758353e-16
4.47081761e-16
4.32060623e-16
4.212278e-16
4.13561449e-16
4.08264908e-16
4.04691297e-16
4.02476018e-16
4.01267343e-16
4.00649054e-16
4.00456764e-16
4.00430852e-16
4.00713282e-16
4.01029517e-16
4.01006468e-16
4.00734543e-16
4.00063419e-16
3.99019481e-16
3.97395286e-16
3.95138667e-16
3.92264712e-16
3.88812395e-16
3.8476457e-16
3.79889582e-16
3.74471723e-16
3.68887026e-16
3.63230248e-16
3.57520668e-16
3.51788717e-16
3.46065275e-16
3.40312494e-16
3.34482012e-16
3.28522598e-16
3.22410147e-16
3.16210689e-16
3.10068804e-16
3.04167063e-16
2.98687395e-16
2.93781399e-16
2.89542042e-16
2.85996718e-16
2.83131426e-16
2.80940034e-16
2.79469287e-16
2.77968481e-16
2.76732677e-16
2.75645137e-16
2.74579454e-16
2.73440247e-16
2.7215578e-16
2.70667544e-16
2.68928064e-16
2.66905186e-16
2.64590406e-16
2.62007661e-16
2.59221813e-16
2.56345445e-16
2.53542615e-16
2.51027507e-16
2.49054101e-16
2.4788697e-16
2.47716642e-16
2.48625148e-16
2.50669271e-16
2.53784946e-16
2.57788807e-16
2.62411057e-16
2.67340247e-16
2.7227017e-16
2.76939233e-16
2.8115719e-16
2.84816951e-16
2.87890245e-16
2.904057e-16
2.92388485e-16
2.9370921e-16
4.98930422e-13
1.71066974e-12
2.85628403e-12
5.01706815e-12
1.50707603e-11
1.58731898e-10
1.9270854e-10
1.61441426e-10
1.19486257e-10
8.72203139e-11
6.75918295e-11
6.15770038e-11
5.79227673e-11
5.28246271e-11
4.71367768e-11
4.21194434e-11
3.83514385e-11
3.59742552e-11
3.51733971e-11
3.50064661e-11
3.44237759e-11
3.32624748e-11
3.18715743e-11
3.06360854e-11
2.97700461e-11
2.93397269e-11
2.93660238e-11
2.97881357e-11
3.02417842e-11
3.04378006e-11
3.03503199e-11
3.01198965e-11
2.9913362e-11
2.9849785e-11
2.99945325e-11
3.03849311e-11
3.09844319e-11
3.16331569e-11
3.21637344e-11
3.25041475e-11
3.2679377e-11
3.27639606e-11
3.28309728e-11
3.2934012e-11
3.31079736e-11
3.33534337e-11
3.36235207e-11
3.3835627e-11
3.39193053e-11
3.38432984e-11
3.36175432e-11
3.32768113e-11
3.28618535e-11
3.24073504e-11
3.19371467e-11
3.14629299e-11
3.09820612e-11
3.04825041e-11
2.99483198e-11
2.93630911e-11
2.87168331e-11
2.80096354e-11
2.72480694e-11
2.64419295e-11
2.56006927e-11
2.47295933e-11
2.38291759e-11
2.2896237e-11
2.19275769e-11
2.09217938e-11
1.98815562e-11
1.88169462e-11
1.7745332e-11
1.66928068e-11
1.56874301e-11
1.47526494e-11
1.3896227e-11
1.3111777e-11
1.23869883e-11
1.17116791e-11
1.10803327e-11
1.04920941e-11
9.95117085e-12
9.46786112e-12
9.05878597e-12
8.74589465e-12
8.55235432e-12
8.4972667e-12
8.58927483e-12
8.82361634e-12
9.18460527e-12
9.65134844e-12
1.0203542e-11
1.08256845e-11
1.15090209e-11
1.22517187e-11
1.30582276e-11
1.39396547e-11
1.4912939e-11
1.60000005e-11
1.72279021e-11
1.86277396e-11
2.02336621e-11
2.2080703e-11
2.41978659e-11
2.66277008e-11
2.94243569e-11
3.26496292e-11
3.63735461e-11
4.06730179e-11
4.56182535e-11
5.13334279e-11
5.79771795e-11
6.57336177e-11
7.48015813e-11
8.53618748e-11
9.77707327e-11
1.12456402e-10
1.29925131e-10
1.50714469e-10
1.75809773e-10
2.063204e-10
2.43334388e-10
2.87486625e-10
3.38768495e-10
3.95605859e-10
4.55154072e-10
5.12778605e-10
5.63992253e-10
6.05192532e-10
6.34110557e-10
6.4952532e-10
6.52819349e-10
6.45242926e-10
6.26713852e-10
6.00038683e-10
5.65997081e-10
5.25637447e-10
4.76019941e-10
4.20308097e-10
3.57269364e-10
2.9085449e-10
2.30070158e-10
1.77947401e-10
1.35184191e-10
1.01075199e-10
7.46709005e-11
5.47274325e-11
3.99290347e-11
2.91364471e-11
2.12791622e-11
1.55637766e-11
1.14516898e-11
8.4155119e-12
6.18551681e-12
4.55096428e-12
3.35328924e-12
2.47510784e-12
1.83036504e-12
1.35624013e-12
1.00695301e-12
7.49140106e-13
5.58470331e-13
4.17173421e-13
3.12253526e-13
2.34190367e-13
1.75995218e-13
1.32528293e-13
1.0000129e-13
7.56155809e-14
5.72997453e-14
4.35178388e-14
3.31294117e-14
2.52896447e-14
1.93511052e-14
1.48500447e-14
1.1432427e-14
8.83294079e-15
6.85237367e-15
5.34088084e-15
4.18555823e-15
3.30118544e-15
2.62331063e-15
2.10309214e-15
1.7034599e-15
1.3962372e-15
1.15995794e-15
9.78222442e-16
8.38467228e-16
7.31079308e-16
6.48672026e-16
5.856231e-16
5.37589187e-16
5.01183715e-16
4.73755823e-16
4.53248671e-16
4.38184215e-16
4.27287262e-16
4.19525452e-16
4.14141593e-16
4.10451409e-16
4.08101645e-16
4.06757064e-16
4.06016063e-16
4.0571533e-16
4.05555822e-16
4.05716416e-16
4.0588522e-16
4.05730312e-16
4.05352104e-16
4.04576609e-16
4.03436509e-16
4.01708883e-16
3.99365776e-16
3.96407415e-16
3.92867472e-16
3.88732558e-16
3.8379222e-16
3.78298772e-16
3.72588982e-16
3.6680747e-16
3.60974516e-16
3.55120792e-16
3.4928485e-16
3.43425394e-16
3.37490199e-16
3.31430548e-16
3.2522775e-16
3.18951025e-16
3.12743831e-16
3.06785353e-16
3.0125366e-16
2.96295645e-16
2.92000879e-16
2.88395237e-16
2.85464437e-16
2.83202567e-16
2.81719661e-16
2.80105761e-16
2.78812937e-16
2.77671372e-16
2.76549837e-16
2.75355974e-16
2.74021235e-16
2.72488587e-16
2.70710763e-16
2.68655287e-16
2.66313217e-16
2.63708197e-16
2.60905075e-16
2.58016793e-16
2.55208175e-16
2.52694456e-16
2.50730348e-16
2.49578982e-16
2.49423073e-16
2.50356809e-16
2.52422906e-16
2.55554081e-16
2.59565455e-16
2.6418668e-16
2.69106811e-16
2.74021019e-16
2.78669664e-16
2.82864575e-16
2.86500526e-16
2.89550698e-16
2.92044877e-16
2.94009402e-16
2.95318231e-16
1.13662389e-20
1.11629227e-20
8.80239703e-21
6.62332585e-21
4.95173748e-21
3.72117895e-21
2.82322331e-21
2.16571867e-21
1.68272193e-21
1.32470567e-21
1.05614684e-21
8.53500511e-22
6.99870502e-22
5.81712741e-22
4.89562671e-22
4.17189385e-22
3.60028788e-22
3.14259063e-22
2.77189406e-22
2.47003053e-22
2.22255564e-22
2.01731572e-22
1.84573834e-22
1.70174609e-22
1.58017058e-22
1.47664812e-22
1.38801146e-22
1.31175006e-22
1.24591255e-22
1.18891683e-22
1.13940046e-22
1.09620658e-22
1.05856623e-22
1.02619803e-22
1.04391352e-22
5.87191257e-22
3.92203976e-20
2.92930405e-18
2.32628347e-16
2.01051226e-14
3.61823161e-21
5.26691778e-21
5.45241825e-21
5.07278056e-21
4.51200687e-21
3.92551553e-21
3.3602366e-21
2.83781512e-21
2.37021994e-21
1.96723889e-21
1.62936557e-21
1.35049807e-21
1.12302354e-21
9.3872914e-22
7.8955676e-22
6.68780694e-22
5.71036267e-22
4.91587148e-22
4.26582817e-22
3.73189364e-22
3.29205131e-22
2.92716778e-22
2.62237961e-22
2.36683576e-22
2.15186826e-22
1.96983555e-22
1.81490085e-22
1.6823922e-22
1.56866254e-22
1.47078021e-22
1.38632071e-22
1.31310616e-22
1.24958254e-22
1.19457298e-22
1.15193378e-22
1.69217535e-22
5.93532367e-21
4.06730075e-19
2.7658121e-17
1.77622423e-15
5.05112492e-22
1.33101958e-21
1.94339721e-21
2.29880742e-21
2.45950305e-21
2.49222728e-21
2.43936499e-21
2.32335776e-21
2.16212075e-21
1.9750002e-21
1.77815905e-21
1.582752e-21
1.39659541e-21
1.22502662e-21
1.07053032e-21
9.33597949e-22
8.13750015e-22
7.09907181e-22
6.20465227e-22
5.43714161e-22
4.78116348e-22
4.22183235e-22
3.74481379e-22
3.33780908e-22
2.99072487e-22
2.69451458e-22
2.44135984e-22
2.22442072e-22
2.03800171e-22
1.87749643e-22
1.73924893e-22
1.61991145e-22
1.51668419e-22
1.42731272e-22
1.35088545e-22
1.37662135e-22
9.19138358e-22
5.07638594e-20
2.86562258e-18
1.41090809e-16
9.68016307e-23
3.04637566e-22
6.93797869e-22
1.08141009e-21
1.38569925e-21
1.59223494e-21
1.71159443e-21
1.75870717e-21
1.74828389e-21
1.69386417e-21
1.60791053e-21
1.50119939e-21
1.38259456e-21
1.25936256e-21
1.13707873e-21
1.01962626e-21
9.09560032e-22
8.08437099e-22
7.16927142e-22
6.35066171e-22
5.62543311e-22
4.98793939e-22
4.43072982e-22
3.94576704e-22
3.52509527e-22
3.16125147e-22
2.8471055e-22