/*--------------------------------*- C++ -*----------------------------------*\
  =========                 |
  \\      /  F ield         | OpenFOAM: The Open Source CFD Toolbox
   \\    /   O peration     | Website:  https://openfoam.org
    \\  /    A nd           | Version:  6
     \\/     M anipulation  |
\*---------------------------------------------------------------------------*/
FoamFile
{
    version     2.0;
    format      ascii;
    class       volScalarField;
    location    "25000";
    object      H2O;
}
// * * * * * * * * * * * * * * * * * * * * * * * * * * * * * * * * * * * * * //

dimensions      [0 0 0 0 0 0 0];

internalField   nonuniform List<scalar> 
44870
(
1.23863637e-52
3.51481462e-52
6.91510728e-52
1.15153481e-51
1.73917515e-51
2.4610301e-51
3.32507933e-51
4.3383467e-51
5.51023437e-51
6.84883886e-51
8.36523413e-51
1.00689202e-50
1.19724877e-50
1.40865906e-50
1.64251812e-50
1.90000245e-50
2.18261951e-50
2.49163285e-50
2.82860716e-50
3.19489312e-50
3.59287803e-50
4.15352765e-50
2.66934807e-49
3.80165095e-47
6.58686172e-45
1.15922084e-42
2.06798477e-40
3.73802669e-38
6.8390433e-36
1.26586475e-33
2.36644064e-31
4.46399481e-29
8.47186593e-27
1.61411575e-24
3.06835361e-22
5.78414003e-20
1.0651221e-17
1.87831678e-15
2.98756343e-13
4.02439984e-11
1.23974428e-52
3.52488577e-52
6.95914511e-52
1.16445318e-51
1.76961551e-51
2.52223095e-51
3.43583945e-51
4.52278635e-51
5.79870239e-51
7.27718904e-51
8.97620573e-51
1.09102829e-50
1.30996812e-50
1.55596825e-50
1.83121583e-50
2.13734365e-50
2.47667572e-50
2.85089141e-50
3.26244339e-50
3.71303967e-50
4.20673992e-50
5.01636803e-50
5.61479432e-49
9.51019456e-47
1.7991826e-44
3.45028295e-42
6.68908435e-40
1.31295374e-37
2.60247915e-35
5.22205253e-33
1.05705887e-30
2.16617885e-28
4.47205951e-26
9.34707762e-24
1.96288953e-21
4.16330459e-19
8.79294125e-17
1.8537969e-14
3.65467832e-12
6.85822407e-10
1.2607097e-52
3.64425608e-52
7.35035598e-52
1.25997617e-51
1.96513881e-51
2.87631103e-51
4.02510921e-51
5.43969225e-51
7.15663608e-51
9.20583303e-51
1.16288635e-50
1.44549485e-50
1.77325054e-50
2.14857015e-50
2.57729294e-50
3.06119933e-50
3.60675541e-50
4.21509715e-50
4.89346854e-50
5.64187784e-50
6.47600127e-50
8.88340005e-50
3.20701372e-48
6.50070787e-46
1.35814543e-43
2.85925113e-41
6.04023843e-39
1.28681828e-36
2.74900211e-34
5.9316452e-32
1.28229154e-29
2.80525026e-27
6.14009022e-25
1.36382904e-22
3.02843967e-20
6.84434921e-18
1.54444636e-15
3.57561612e-13
7.94552443e-11
1.81439543e-08
1.49972786e-52
4.73372068e-52
1.028229e-51
1.87766177e-51
3.08628167e-51
4.72224379e-51
6.85596018e-51
9.55705506e-51
1.28952168e-50
1.69341094e-50
2.1735438e-50
2.73496134e-50
3.38222265e-50
4.11853127e-50
4.94628878e-50
5.86667301e-50
6.87935202e-50
7.98382902e-50
9.17616315e-50
1.04558971e-49
1.1942584e-49
4.13378209e-49
6.2215387e-47
1.36987985e-44
3.01856042e-42
6.65220957e-40
1.46504129e-37
3.23075379e-35
7.12408276e-33
1.5755176e-30
3.48507642e-28
7.74341935e-26
1.72082808e-23
3.84721443e-21
8.60230891e-19
1.9340757e-16
4.33704273e-14
9.73963127e-12
2.11655902e-09
4.47383425e-07
4.9549592e-52
1.48880466e-51
2.95794566e-51
4.87640627e-51
7.22349737e-51
9.97880303e-51
1.31313494e-50
1.66716449e-50
2.0599318e-50
2.49143244e-50
2.96249472e-50
3.47382077e-50
4.02689819e-50
4.62290924e-50
5.26374387e-50
5.95089979e-50
6.68644745e-50
7.47198268e-50
8.30966389e-50
9.21305906e-50
1.28964106e-49
6.24910065e-48
1.36234025e-45
3.00766456e-43
6.61059798e-41
1.44734202e-38
3.15828345e-36
6.8709225e-34
1.49118563e-31
3.2291281e-29
6.98044314e-27
1.50661477e-24
3.24790945e-22
6.99399939e-20
1.50492433e-17
3.23576267e-15
6.9538012e-13
1.49356594e-10
3.20643885e-08
6.91702324e-06
1.28460408e-09
5.36892412e-09
1.39979719e-08
3.01074462e-08
5.8062721e-08
1.03872964e-07
1.75355237e-07
2.82705626e-07
4.38229472e-07
6.58062382e-07
9.60704451e-07
1.37069595e-06
1.91505189e-06
2.62954686e-06
3.55452179e-06
4.7385016e-06
6.24123787e-06
8.12753937e-06
1.04854756e-05
1.34032416e-05
1.70003143e-05
2.14046615e-05
2.67729408e-05
3.32901926e-05
4.11715527e-05
5.06795887e-05
6.20779791e-05
7.5768241e-05
9.20800491e-05
0.000111583595
0.00013476095
0.000162267786
0.000194848311
0.000233221232
0.000278422776
0.000331308154
0.000393185864
0.000465123109
0.000548662978
0.000645203905
0.000756563946
0.000884596908
0.00103137786
0.00119914537
0.00138992621
0.00160593293
0.00184924484
0.00212193016
0.00242607024
0.00276381723
0.00313732242
0.00354880304
0.00400033894
0.00449394868
0.00503128301
0.00561369951
0.00624196855
0.00691638703
0.00763667818
0.00840214772
0.00921177653
0.0100642709
0.0109583292
0.0118925069
0.0128658034
0.0138771842
0.0149263845
0.0160130649
0.0171374882
0.0182993375
0.0194982033
0.0207328896
0.0220013078
0.0233015304
0.0246298842
0.0259841031
0.0273621344
0.0287609315
0.030178426
0.0316132334
0.0330641186
0.0345301026
0.0360106416
0.0375051378
0.0390130834
0.0405336335
0.0420662925
0.0436098408
0.0451632065
0.0467253464
0.0482949952
0.0498710838
0.0514523682
0.0530377553
0.0546263391
0.0562174725
0.0578107653
0.0594061789
0.0610039713
0.0626048168
0.0642097367
0.0658195479
0.0674351872
0.0690577338
0.0706880963
0.0723275813
0.0739776731
0.0756397936
0.0773162364
0.0790095326
0.0807230683
0.0824608071
0.0842274712
0.086028992
0.0878724105
0.0897659686
0.0917191482
0.093742497
0.0958470479
0.098042982
0.100337041
0.102728187
0.105201543
0.107722409
0.110234208
0.112664846
0.114941016
0.11700357
0.118816793
0.120369162
0.121668275
0.122734027
0.123592286
0.124270418
0.124794553
0.125188014
0.125470647
0.125658516
0.125764073
0.125795843
0.12575998
0.125661114
0.125499836
0.125271637
0.124964929
0.12457281
0.124099678
0.123552837
0.122936738
0.12225531
0.121510298
0.120702913
0.119834456
0.11890648
0.117920927
0.116880209
0.115787236
0.114645417
0.113458512
0.112230484
0.110965402
0.109667385
0.10834054
0.106988904
0.105616407
0.104226838
0.102823825
0.101410809
0.0999910371
0.0985675438
0.0971431167
0.0957202003
0.0943006091
0.0928854268
0.0914828967
0.0900912151
0.0887107411
0.0873436982
0.0859914542
0.084655231
0.0833360912
0.0820349397
0.0807525259
0.0794894958
0.0782464398
0.0770238121
0.0758218093
0.0746404585
0.0734799719
0.0723406177
0.0712221922
0.0701235411
0.0690443319
0.0679856176
0.0669476984
0.0659289666
0.0649267899
0.0639434031
0.0629818831
0.0620423542
0.0611227421
0.06021855
0.0593342635
0.0584713889
0.0576292177
0.0568063242
0.0559965089
0.0552100063
0.0544472611
0.0537047936
0.0529799661
0.0522717342
0.0515872599
0.0509236796
0.0502805401
0.0496532354
0.0490442309
0.0484566445
0.0478843497
0.0473232341
0.0467717707
0.0462306626
0.0457010912
0.0451822981
0.0446750803
0.044180531
0.0437003005
0.0432346902
0.0427818081
0.0423387643
0.04190238
0.041469406
0.0410369057
0.0406027889
0.0401660662
0.0397267154
0.0392852433
0.0388427932
0.0384004892
0.037962513
0.0375288388
0.0371015021
0.0366822724
0.0362725919
0.0358735703
0.035485962
0.0351101224
0.0347459342
0.0343927143
0.0340491156
0.0337130539
0.0333817128
0.0330517126
0.0327195372
0.0323821978
0.0320371915
0.0316871701
0.031334894
0.0309824931
0.0306351431
0.0302975941
0.029973841
0.0296668064
0.0293782906
0.0291091862
0.0288599519
0.0286314928
0.0284268941
0.0282552266
0.0281403441
2.65081606e-08
9.52658528e-08
2.16394692e-07
4.21043445e-07
7.52464772e-07
1.26378307e-06
2.01627347e-06
3.08830821e-06
4.56905344e-06
6.57472053e-06
9.23045513e-06
1.27010874e-05
1.71565423e-05
2.28193235e-05
2.99256924e-05
3.8747737e-05
4.96067268e-05
6.28302623e-05
7.88437069e-05
9.80320431e-05
0.00012089464
0.000147930761
0.000179682421
0.000216811209
0.00025986404
0.000309667882
0.000366819197
0.000432212374
0.000506596019
0.000590925587
0.000685922658
0.00079247002
0.000911261009
0.00104302016
0.00118843317
0.00134808768
0.00152272155
0.00171284758
0.00191931375
0.00214262472
0.00238367682
0.00264293726
0.00292114365
0.00321887759
0.00353627726
0.0038739588
0.00423244359
0.00461240323
0.00501465906
0.00544018513
0.00589006048
0.00636549158
0.00686773721
0.00739815034
0.00795810433
0.00854902824
0.0091722791
0.00982914529
0.0105207045
0.0112478202
0.0120110486
0.0128106961
0.0136468123
0.0145193157
0.0154281375
0.0163730447
0.0173542301
0.0183717458
0.0194258947
0.0205165384
0.0216433891
0.022805524
0.0240013802
0.0252293539
0.0264866359
0.0277711861
0.0290813259
0.0304144346
0.0317686151
0.0331425974
0.034535025
0.0359449391
0.0373717188
0.0388146338
0.0402730069
0.041745963
0.0432328025
0.04473235
0.046243444
0.0477650563
0.0492958651
0.0508346733
0.0523802951
0.0539316415
0.0554878091
0.0570481318
0.0586121921
0.0601799141
0.0617515162
0.06332765
0.0649092445
0.0664970235
0.068091867
0.069694799
0.0713066769
0.0729288167
0.0745626229
0.0762095164
0.0778717871
0.0795519797
0.0812533793
0.0829799304
0.0847364048
0.0865286368
0.0883635366
0.0902491741
0.0921947594
0.0942104197
0.0963065555
0.0984924291
0.100773529
0.103147271
0.105597201
0.108087573
0.110561995
0.11295016
0.115181722
0.117200688
0.118973822
0.120490967
0.121760143
0.122801027
0.123638864
0.124300271
0.124810651
0.12519264
0.125465496
0.125644738
0.125742363
0.125766604
0.125723578
0.125617465
0.125448722
0.125212134
0.124896591
0.12449645
0.124016637
0.12346418
0.12284328
0.122157654
0.121408994
0.120598512
0.119727518
0.118797543
0.117810513
0.116768822
0.115675361
0.114533516
0.113347017
0.112119783
0.110855841
0.10955927
0.108234132
0.106884428
0.105514051
0.104126755
0.102726135
0.101315607
0.0998983912
0.0984775004
0.0970557033
0.0956354286
0.0942184606
0.0928056236
0.0914059204
0.0900168941
0.0886388953
0.0872742766
0.0859244135
0.0845905144
0.0832736381
0.081974685
0.0806943963
0.0794334162
0.0781923482
0.0769716543
0.0757715074
0.0745919093
0.0734331149
0.0722954612
0.0711787023
0.0700816097
0.0690037493
0.0679464859
0.0669102165
0.065892987
0.0648919201
0.0639094131
0.0629491992
0.0620111688
0.0610926509
0.0601890929
0.0593053159
0.0584436293
0.0576028062
0.0567806216
0.0559709256
0.0551848929
0.0544233636
0.0536818387
0.0529572881
0.0522490974
0.0515650332
0.0509023756
0.0502599143
0.0496328202
0.0490238976
0.048436725
0.0478649107
0.0473044023
0.0467533867
0.0462127139
0.0456837468
0.0451655731
0.0446588255
0.0441646342
0.0436847047
0.0432193338
0.0427665748
0.0423235349
0.0418870987
0.0414540824
0.0410215853
0.0405875358
0.0401509624
0.0397118483
0.0392706566
0.0388285105
0.03838664
0.0379491589
0.0375159619
0.0370890751
0.0366702698
0.0362609761
0.0358622955
0.0354749778
0.035099377
0.034735377
0.0343822983
0.0340388007
0.0337028103
0.0333715249
0.0330415839
0.0327094931
0.0323722805
0.0320273424
0.0316778519
0.0313258641
0.0309738657
0.030626957
0.0302898576
0.029966539
0.0296599076
0.0293717537
0.0291029649
0.0288539997
0.0286257649
0.0284213479
0.0282498177
0.0281350373
9.97223982e-07
3.12786673e-06
6.35891589e-06
1.13586591e-05
1.87080198e-05
2.89653539e-05
4.2731178e-05
6.06927112e-05
8.3541756e-05
0.000112063588
0.000146980574
0.000189095947
0.000239096865
0.000297763327
0.00036575945
0.000443790591
0.000532497385
0.000632412182
0.000744078506
0.000867865568
0.00100417981
0.0011533085
0.00131552205
0.00149107261
0.00168008519
0.00188288724
0.00209935393
0.00232951715
0.0025734444
0.00283086009
0.00310132866
0.00338442632
0.00367960824
0.00398650311
0.00430470353
0.00463407611
0.00497457045
0.00532629496
0.00568951763
0.00606430544
0.00645093044
0.00684929914
0.00725967104
0.00768218748
0.00811660229
0.00856328884
0.00902249913
0.00949458299
0.00997995408
0.0104790989
0.0109925194
0.0115208779
0.0120649373
0.0126256322
0.0132040553
0.013801465
0.0144192164
0.0150587323
0.0157214063
0.016408541
0.0171212965
0.017860729
0.0186276883
0.0194231342
0.0202476914
0.0211020111
0.021987028
0.022903383
0.0238517259
0.0248324025
0.0258455578
0.0268908881
0.0279677152
0.0290751575
0.0302117102
0.0313760063
0.03256709
0.0337831963
0.0350229795
0.0362854205
0.037569451
0.0388742388
0.0401990844
0.0415432469
0.0429059191
0.0442862716
0.0456833604
0.047096206
0.0485235866
0.0499643227
0.0514171986
0.0528810043
0.0543545753
0.0558368689
0.0573270295
0.0588243892
0.0603285118
0.0618392804
0.063356869
0.0648819036
0.0664151022
0.0679570585
0.0695085604
0.0710705263
0.0726437417
0.0742295082
0.0758290943
0.077443975
0.0790763564
0.0807288194
0.0824045018
0.0841073641
0.0858421127
0.0876143849
0.0894308202
0.0912990723
0.0932277086
0.0952258833
0.0973025581
0.0994649509
0.101715829
0.104049369
0.106445975
0.108868079
0.111260158
0.113556023
0.115691633
0.117617497
0.119305314
0.120747638
0.121953224
0.122941229
0.12373554
0.124361189
0.124842053
0.125199304
0.125450968
0.125611381
0.125691582
0.125699315
0.125640582
0.125518745
0.125333236
0.125078108
0.124743418
0.124326243
0.123832214
0.123267759
0.122636616
0.121941968
0.1211855
0.120368415
0.119492032
0.11855783
0.117567694
0.116523988
0.11542956
0.114287748
0.113102211
0.111876777
0.110615384
0.109322019
0.108000657
0.106655211
0.105289496
0.103907194
0.10251183
0.10110676
0.0996951502
0.0982799653
0.0968639327
0.095449447
0.0940382259
0.0926304793
0.091237002
0.0898537917
0.0884812276
0.0871219293
0.0857772854
0.0844484803
0.0831365617
0.0818424239
0.0805668008
0.0793103291
0.0780736152
0.0768571311
0.0756610519
0.0744853667
0.0733303339
0.0721963261
0.0710830572
0.0699894954
0.0689149114
0.0678608251
0.0668277323
0.0658135688
0.0648154248
0.063835489
0.0628777714
0.0619420793
0.0610258473
0.0601246788
0.0592427907
0.0583829052
0.0575439053
0.0567234026
0.0559152876
0.0551308365
0.0543709209
0.0536305186
0.0529070228
0.0521999935
0.0515169624
0.0508554305
0.0502138831
0.0495876918
0.0489795826
0.048393823
0.047822343
0.0472626264
0.0467128476
0.0461734088
0.045645631
0.0451285861
0.0446228464
0.0441295786
0.0436503869
0.0431855049
0.042732994
0.0422900045
0.0418535088
0.041420423
0.040987936
0.04055404
0.0401178045
0.0396792188
0.0392386506
0.0387971283
0.0383562482
0.0379198488
0.0374876888
0.0370617855
0.0366439085
0.0362354618
0.0358375283
0.0354508477
0.0350757709
0.0347121845
0.0343594172
0.0340161434
0.0336803115
0.0333491511
0.0330193427
0.0326874418
0.0323505333
0.0320052798
0.0316574672
0.0313060484
0.0309549257
0.0306089844
0.03027287
0.0299505028
0.029644754
0.0293573923
0.0290892951
0.0288409193
0.0286131753
0.0284091559
0.0282379278
0.028123358
4.00657609e-05
9.93566892e-05
0.000177962491
0.000277352511
0.000397507982
0.000538703721
0.000700915331
0.00088413499
0.00108778944
0.00131123176
0.00155330891
0.001812941
0.00208857888
0.00237917978
0.00268322014
0.00299975815
0.00332719034
0.00366422197
0.00400974812
0.00436262803
0.00472220811
0.00508770507
0.00545898991
0.00583552778
0.0062175668
0.00660480125
0.00699711055
0.00739411896
0.00779598051
0.00820223608
0.0086127114
0.00902732648
0.00944623497
0.00986980354
0.0102984978
0.0107328479
0.0111732432
0.0116200854
0.0120735161
0.012533451
0.0129998023
0.0134723119
0.0139509699
0.014435721
0.0149260654
0.0154220791
0.0159237272
0.0164311156
0.0169444862
0.0174641497
0.0179905429
0.0185242694
0.0190660478
0.0196168033
0.0201775772
0.0207495793
0.0213340982
0.0219324798
0.0225460541
0.02317603
0.0238236011
0.0244898395
0.0251758355
0.0258826527
0.0266113353
0.0273629629
0.0281387484
0.0289397369
0.0297669567
0.0306212194
0.0315031704
0.0324131577
0.0333513235
0.0343175549
0.0353114454
0.0363324206
0.0373803078
0.0384542149
0.0395534598
0.0406773655
0.041825482
0.0429971718
0.0441917589
0.0454086711
0.0466471063
0.0479063772
0.0491855197
0.050483557
0.0517994015
0.0531319059
0.0544799497
0.0558424148
0.0572182197
0.0586064353
0.0600063079
0.0614172057
0.0628387119
0.0642707088
0.065713358
0.0671672136
0.0686327403
0.0701104384
0.071600994
0.0731051927
0.0746238041
0.0761579507
0.0777088739
0.079278143
0.0808677917
0.0824804033
0.0841190839
0.0857876265
0.0874905748
0.0892332674
0.091021867
0.0928632988
0.0947650375
0.0967346319
0.0987787486
0.10090147
0.103101585
0.105368838
0.107679779
0.109995317
0.112262298
0.114421101
0.116416614
0.11820808
0.119773523
0.121108805
0.122223413
0.123135626
0.123867279
0.124441152
0.124878991
0.125199867
0.125420074
0.125552191
0.125605976
0.125589071
0.125506602
0.125360506
0.125149105
0.124865755
0.124503089
0.124061569
0.123547166
0.122965396
0.122319497
0.121611735
0.120844009
0.120017449
0.119133405
0.118193245
0.117198787
0.116152356
0.115056756
0.11391524
0.112731363
0.111508819
0.110251417
0.108963007
0.107647436
0.106308493
0.104949872
0.103575149
0.102187751
0.100790943
0.0993878115
0.09798125
0.0965739252
0.095168183
0.0937656533
0.0923654267
0.0909840871
0.0896069792
0.0882426712
0.0868914264
0.0855546654
0.0842335512
0.0829291149
0.0816422469
0.0803736783
0.0791240281
0.0778938827
0.0766837332
0.0754938093
0.0743241065
0.0731747899
0.0720462124
0.0709383057
0.0698500536
0.0687806569
0.0677313683
0.0667025924
0.0656929373
0.0646997297
0.0637242298
0.0627698929
0.0618366215
0.0609239426
0.0600273424
0.0591491012
0.0582910859
0.0574535839
0.0566359559
0.0558314373
0.0550500506
0.0542914656
0.0535517615
0.0528304101
0.0521261012
0.0514449067
0.0507840715
0.0501433142
0.049518961
0.0489127717
0.0483272972
0.0477567816
0.0471988159
0.0466511141
0.0461138191
0.0455877531
0.0450721382
0.0445678908
0.0440761658
0.0435981988
0.0431340592
0.0426819193
0.0422390693
0.0418025635
0.0413694188
0.0409369631
0.0405033129
0.0400676064
0.0396298339
0.039190226
0.0387495571
0.03831029
0.0378754912
0.0374448783
0.0370204527
0.0366039734
0.0361968032
0.0357999966
0.0354142781
0.0350399941
0.034677035
0.0343247418
0.0339818109
0.0336462245
0.0333152597
0.0329856587
0.0326540526
0.0323176571
0.0319740397
0.0316264629
0.0312760382
0.0309262455
0.0305817646
0.0302471356
0.0299262024
0.0296217836
0.0293356163
0.0290685629
0.0288210764
0.0285940727
0.0283906529
0.0282198825
0.0281056201
0.00155507926
0.00241939757
0.0031923802
0.00391047246
0.00460118119
0.00527406196
0.00593176373
0.00657206814
0.00719173669
0.00778884494
0.00836331012
0.00891606748
0.00944840947
0.00996353767
0.0104636133
0.0109502356
0.0114254638
0.0118909999
0.0123484124
0.012799221
0.0132454628
0.0136888278
0.0141307516
0.0145719611
0.015013235
0.0154538174
0.015893682
0.016332663
0.0167704787
0.017207422
0.0176439506
0.0180804491
0.0185176143
0.0189562843
0.0193970838
0.0198404192
0.0202863707
0.0207351092
0.0211864395
0.0216401337
0.0220959091
0.0225535548
0.0230130111
0.0234741175
0.0239362254
0.0243992649
0.0248632117
0.0253283155
0.0257950084
0.0262638436
0.0267354764
0.0272107298
0.0276904723
0.0281757668
0.028667659
0.029167358
0.0296760226
0.0301948078
0.0307247728
0.0312667719
0.0318217258
0.0323903532
0.0329736536
0.0335722467
0.0341874274
0.0348202582
0.0354718231
0.0361433379
0.0368360913
0.0375511639
0.0382896318
0.0390523591
0.0398400997
0.0406533533
0.04149246
0.0423575534
0.0432491317
0.044166979
0.0451109699
0.0460809817
0.0470769348
0.0480985705
0.049145467
0.0502172143
0.051313138
0.0524327817
0.0535752487
0.0547396337
0.055925039
0.0571304819
0.0583549998
0.0595976296
0.0608574533
0.0621337127
0.0634257875
0.0647331271
0.066055361
0.067392461
0.0687444875
0.0701119184
0.0714950182
0.0728942285
0.0743101104
0.0757433181
0.077194624
0.0786648977
0.0801554324
0.0816678383
0.083204043
0.0847665356
0.0863582913
0.0879828786
0.0896445079
0.0913480118
0.0930987726
0.0949025609
0.0967651838
0.0986918425
0.100686005
0.102747637
0.104870683
0.10704005
0.109228888
0.111398131
0.113499227
0.115481391
0.117300047
0.118924187
0.120338434
0.121541809
0.122544212
0.123362688
0.124016311
0.124525142
0.124908425
0.125182554
0.125361802
0.125456169
0.12547543
0.125426042
0.125311553
0.125132471
0.124885811
0.12456524
0.124167647
0.12369623
0.123156654
0.122553302
0.121888735
0.121164838
0.120383168
0.119544963
0.118651638
0.117704355
0.11670484
0.115655404
0.114558761
0.113418108
0.112236822
0.111018439
0.1097666
0.108484986
0.107177275
0.105847098
0.104498002
0.10313342
0.101756654
0.100370854
0.0989790044
0.0975839073
0.0961881512
0.094794022
0.0934030713
0.0920124631
0.0906451803
0.089278569
0.087925155
0.0865846097
0.085258316
0.0839474108
0.0826529037
0.0813756827
0.0801164869
0.0788759109
0.0776544887
0.0764527274
0.0752709795
0.0741092932
0.0729676294
0.0718462096
0.0707452222
0.0696641718
0.0686019725
0.0675591558
0.0665356867
0.0655318065
0.0645456075
0.063576555
0.062626467
0.0616954759
0.0607874937
0.0598977952
0.0590251004
0.0581689566
0.0573323175
0.0565187751
0.0557200118
0.0549433023
0.0541855957
0.0534460515
0.0527280406
0.0520280755
0.0513495763
0.0506887998
0.0500486384
0.0494271414
0.0488240283
0.0482398217
0.0476695791
0.0471132462
0.0465685201
0.0460342258
0.0455102948
0.0449963058
0.0444940194
0.0440044542
0.043528186
0.0430650276
0.0426133994
0.0421708243
0.0417344108
0.0413012662
0.0408689062
0.0404356355
0.0400006823
0.039564028
0.0391257478
0.0386860356
0.0382492015
0.0378164268
0.0373878319
0.0369653564
0.0365507268
0.0361452476
0.0357499351
0.0353654938
0.0349922643
0.0346301425
0.0342784856
0.033936019
0.0336007695
0.0332700769
0.0329407646
0.0326095626
0.0322738299
0.031931665
0.031585028
0.0312360414
0.0308880265
0.0305454822
0.0302128199
0.0298937849
0.0295911264
0.0293065408
0.0290408704
0.0287945627
0.0285685402
0.0283659154
0.0281957532
0.0280818925
0.0368273805
0.0290839336
0.0251572406
0.0230054901
0.0217768669
0.0211361973
0.0208447126
0.0207397269
0.0207337
0.0207857799
0.0208846656
0.0210200917
0.0211857399
0.0213778053
0.0215896775
0.0218141516
0.0220491554
0.0222943793
0.0225482775
0.0228100025
0.0230812767
0.02336215
0.0236521167
0.0239501124
0.0242558081
0.0245673601
0.0248835386
0.0252036784
0.0255276776
0.0258557857
0.0261878669
0.0265236668
0.0268637506
0.0272088682
0.0275593241
0.0279148886
0.028274932
0.0286389946
0.0290063125
0.0293762217
0.029748222
0.0301220472
0.0304976936
0.0308748427
0.0312527924
0.0316314863
0.0320110222
0.0323917744
0.0327743054
0.0331592586
0.0335473861
0.0339396519
0.0343370406
0.0347407229
0.0351516492
0.0355709654
0.0359995671
0.0364382986
0.0368878435
0.0373486722
0.0378214065
0.0383064544
0.0388046218
0.0393162699
0.0398424857
0.0403842149
0.0409425168
0.0415185233
0.0421136288
0.0427289534
0.0433658165
0.0440252255
0.0447081494
0.0454153007
0.0461472694
0.046904541
0.047687925
0.04849747
0.0493333475
0.0501958144
0.0510850116
0.0520008999
0.0529432583
0.053911807
0.0549060279
0.0559255769
0.0569696536
0.0580374984
0.0591283634
0.0602414217
0.0613758713
0.062530893
0.063705739
0.0648997587
0.0661124377
0.0673433398
0.0685920926
0.0698586715
0.071143354
0.072446172
0.0737674976
0.0751076958
0.0764672438
0.0778467182
0.0792468394
0.080668414
0.0821126833
0.0835812501
0.0850759887
0.0865992621
0.0881538541
0.0897430814
0.0913707751
0.0930412215
0.0947590005
0.0965287529
0.0983547351
0.100240085
0.102185642
0.104188275
0.106238666
0.108319046
0.110401486
0.11244865
0.114416527
0.116261153
0.117945038
0.119443512
0.120745044
0.12185026
0.12276896
0.123517247
0.124111809
0.124570822
0.124911807
0.125149008
0.125295059
0.125359294
0.125350601
0.125274499
0.125133393
0.124926583
0.124650591
0.124300877
0.123877298
0.123383858
0.122825457
0.122205779
0.121527094
0.120791023
0.119998972
0.119152215
0.11825231
0.117300009
0.116297057
0.115245773
0.114148852
0.113009371
0.111830598
0.110615948
0.109368929
0.10809309
0.106791981
0.105469107
0.104127899
0.102771684
0.101403664
0.100026899
0.0986442942
0.0972585794
0.0958722823
0.0944876441
0.0931062056
0.0917230117
0.0903672719
0.0890095499
0.0876650018
0.0863331977
0.0850154525
0.083712886
0.0824264912
0.0811571473
0.0799055956
0.0786724299
0.0774581641
0.0762632925
0.075088203
0.0739329987
0.0727976153
0.0716821905
0.0705869425
0.0695115746
0.0684550224
0.0674175786
0.0663990688
0.065399896
0.0644187079
0.0634543148
0.062508307
0.0615805731
0.0606761521
0.059790864
0.0589217608
0.0580683609
0.0572340533
0.0564233185
0.0556278258
0.0548541531
0.0540986508
0.0533606645
0.0526447276
0.0519470382
0.0512703713
0.0506109315
0.0499720378
0.049352221
0.0487507503
0.0481677139
0.0475984846
0.0470436084
0.0465008037
0.0459684907
0.0454462732
0.0449338821
0.0444331947
0.0439451744
0.0434701612
0.0430078451
0.0425567146
0.0421143911
0.0416780747
0.0412449954
0.0408128157
0.0403799488
0.0399456776
0.0395099865
0.0390728827
0.0386337302
0.0381993
0.0377679934
0.037341008
0.036920116
0.036506993
0.0361028918
0.0357087982
0.0353254009
0.034953036
0.0345916035
0.0342404739
0.0338983962
0.0335634338
0.0332329769
0.0329039146
0.0325730553
0.0322378601
0.031896669
0.0315509716
0.0312032124
0.0308566571
0.0305156914
0.0301846301
0.0298671406
0.0295659166
0.0292826201
0.0290180773
0.0287727314
0.0285475107
0.0283455359
0.0281758712
0.0280623372
0.0946897004
0.0950558101
0.0953278402
0.0955407527
0.0957115476
0.0958495127
0.0959609601
0.0960511609
0.0961242335
0.0961841245
0.0962337349
0.096275044
0.0963097222
0.0963391872
0.0963644232
0.096386128
0.0964049039
0.0964212718
0.096435597
0.0964481601
0.0964592267
0.0964690212
0.0964777048
0.0964854111
0.0964922724
0.0964984003
0.0965038785
0.0965087816
0.0965131707
0.0965171023
0.0965206274
0.0965237898
0.0965266151
0.0965291273
0.0965313387
0.09653324
0.0965348
0.0965360145
0.0965406258
0.0965640202
0.0946049352
0.0949283308
0.0951785911
0.0953787673
0.0955431104
0.0956805551
0.0957963859
0.0958943639
0.0959773244
0.0960480068
0.0961086715
0.0961609084
0.0962059722
0.0962450644
0.0962791645
0.0963089997
0.096335157
0.09635819
0.0963785481
0.0963965743
0.096412564
0.096426796
0.0964394941
0.0964508328
0.0964609699
0.0964700567
0.0964782122
0.0964855379
0.0964921221
0.0964980405
0.0965033611
0.0965081497
0.096512449
0.0965162944
0.0965197104
0.0965227009
0.096525229
0.0965272793
0.0965293485
0.0965380922
0.0945325775
0.0948226173
0.0950578845
0.0952501468
0.0954100722
0.0955456607
0.0956622939
0.095763338
0.0958511447
0.0959277315
0.0959948558
0.0960539092
0.0961059631
0.096151952
0.0961927339
0.0962290202
0.09626137
0.0962902484
0.0963160911
0.0963392741
0.0963600855
0.0963787799
0.0963956059
0.0964107741
0.0964244486
0.0964367814
0.0964479103
0.096457964
0.0964670575
0.0964752845
0.0964827191
0.0964894364
0.0964955032
0.0965009759
0.0965058971
0.0965103045
0.0965142104
0.0965176537
0.0965206363
0.096520853
0.0945112533
0.0947807481
0.0950060676
0.0951937492
0.0953514545
0.0954856356
0.0956012929
0.0957020176
0.0957904128
0.0958683939
0.0959374895
0.0959989553
0.0960537778
0.0961027514
0.0961465858
0.0961859233
0.0962212904
0.0962531147
0.0962817876
0.0963076621
0.096331029
0.0963521397
0.0963712282
0.0963885019
0.0964041407
0.096418297
0.0964311122
0.096442719
0.0964532389
0.0964627783
0.0964714272
0.0964792678
0.0964863771
0.0964928213
0.0964986691
0.0965039886
0.0965088683
0.0965133587
0.0965173317
0.0965112965
0.094514832
0.0947901962
0.0950204908
0.0952111431
0.0953702857
0.0955049523
0.095620617
0.0957211678
0.0958093623
0.0958871161
0.0959559241
0.0960170758
0.0960715795
0.0961202006
0.0961635937
0.096202412
0.0962372193
0.0962684526
0.0962965087
0.0963217511
0.0963444577
0.0963648991
0.0963833297
0.0963999436
0.0964149314
0.0964284512
0.0964406409
0.0964516392
0.0964615792
0.0964705625
0.096478682
0.0964860324
0.096492687
0.0964987057
0.0965041681
0.0965091625
0.0965137935
0.0965180957
0.096521192
0.0964925009
0.0945454832
0.0948474343
0.0950918826
0.0952893016
0.0954522205
0.0955894166
0.0957067985
0.0958081231
0.0958960495
0.0959724581
0.096039029
0.0960973129
0.0961485406
0.0961935419
0.096233075
0.0962679441
0.0962988047
0.0963261132
0.0963503275
0.0963718437
0.0963909541
0.09640796
0.0964231264
0.0964366498
0.0964487233
0.0964595036
0.0964691354
0.0964777578
0.0964854899
0.0964924179
0.0964986364
0.096504228
0.0965092522
0.0965137732
0.0965178634
0.0965215982
0.0965250448
0.0965281172
0.0965269145
0.0964148785
0.0946205584
0.094952526
0.0952092014
0.0954146542
0.095584603
0.0957269956
0.0958464475
0.0959469814
0.0960317135
0.0961029791
0.0961632279
0.0962145257
0.0962582607
0.0962955403
0.0963275184
0.0963550999
0.0963789151
0.0963995522
0.0964175098
0.0964331494
0.0964468281
0.0964588324
0.0964693668
0.0964786418
0.0964868211
0.0964940458
0.0965004518
0.0965061384
0.0965111787
0.0965156584
0.0965196508
0.0965232037
0.0965263748
0.0965292254
0.0965317973
0.0965341266
0.0965362284
0.0965375684
0.0965223779
0.0960988099
0.0946935161
0.09506602
0.0953464395
0.0955684286
0.095749329
0.0958962069
0.0960133
0.0961063411
0.0961801816
0.0962389568
0.0962865394
0.0963255866
0.0963577654
0.0963844864
0.0964069923
0.0964260762
0.0964422906
0.0964561705
0.096468114
0.0964784044
0.0964873297
0.0964950962
0.0965018536
0.0965077643
0.0965129436
0.0965174939
0.0965215063
0.0965250445
0.0965281633
0.0965309262
0.0965333755
0.0965355448
0.0965374783
0.0965392099
0.0965407622
0.0965421542
0.0965433371
0.0965422741
0.0964849183
0.0950178856
0.0846155341
0.0737227356
0.0652116595
0.0585233662
0.0533353913
0.0498647562
0.0472703229
0.045083613
0.0432109998
0.0416359
0.0403553354
0.0393431842
0.0385436501
0.0379076757
0.0373905612
0.0369669337
0.0366194076
0.0363463117
0.0361389076
0.0359862174
0.0358814794
0.0358176747
0.0357886932
0.0357902665
0.0358199643
0.03587435
0.0359506448
0.0360457088
0.0361566233
0.0362819573
0.0364207704
0.0365721717
0.0367365174
0.0369142356
0.037105236
0.0373082257
0.0375210976
0.0377418801
0.0379687994
0.0382008338
0.0384373404
0.038678318
0.0389238207
0.0391736693
0.0394272025
0.0396839839
0.0399436192
0.0402060447
0.04047162
0.0407409908
0.0410150527
0.0412949883
0.04158203
0.0418774504
0.0421821364
0.0424969667
0.0428224794
0.0431590678
0.0435070539
0.043866627
0.0442381162
0.0446217518
0.0450180543
0.0454272217
0.0458499781
0.0462870702
0.0467394116
0.0472080131
0.0476942344
0.0481991641
0.0487242331
0.0492705132
0.0498390707
0.0504307905
0.0510465313
0.0516870917
0.0523535814
0.0530464149
0.0537661329
0.0545133329
0.0552884006
0.0560915104
0.0569226179
0.0577815456
0.0586679318
0.0595814155
0.0605213722
0.0614871828
0.0624782275
0.0634938401
0.0645333834
0.0655961906
0.0666816805
0.0677893007
0.0689186302
0.0700693447
0.0712410614
0.0724338185
0.07364782
0.0748829696
0.0761395828
0.0774179573