/*--------------------------------*- C++ -*----------------------------------*\
  =========                 |
  \\      /  F ield         | OpenFOAM: The Open Source CFD Toolbox
   \\    /   O peration     | Website:  https://openfoam.org
    \\  /    A nd           | Version:  6
     \\/     M anipulation  |
\*---------------------------------------------------------------------------*/
FoamFile
{
    version     2.0;
    format      ascii;
    class       volScalarField;
    location    "25000";
    object      H2O2;
}
// * * * * * * * * * * * * * * * * * * * * * * * * * * * * * * * * * * * * * //

dimensions      [0 0 0 0 0 0 0];

internalField   nonuniform List<scalar> 
44870
(
1.0053003e-54
2.5120079e-54
4.5193948e-54
7.03216186e-54
1.006222e-53
1.36202185e-53
1.7726808e-53
2.2399763e-53
2.76683515e-53
3.35573361e-53
4.01040567e-53
4.73396089e-53
5.53081435e-53
6.40461909e-53
7.36031517e-53
8.40198365e-53
9.53495533e-53
1.07636281e-52
1.20935512e-52
1.35294054e-52
1.50768426e-52
1.67422469e-52
1.87719822e-52
6.23263925e-52
7.2894876e-50
1.27900792e-47
2.28174707e-45
4.12465453e-43
7.54692906e-41
1.39700521e-38
2.61186102e-36
4.92755933e-34
9.3530544e-32
1.78232648e-29
3.3888695e-27
6.39001874e-25
1.17704944e-22
2.07640817e-20
3.3039633e-18
4.45262141e-16
1.00640164e-54
2.51787256e-54
4.54231139e-54
7.09639548e-54
1.0208682e-53
1.39065599e-53
1.82322831e-53
2.32222335e-53
2.89294394e-53
3.53969522e-53
4.26874805e-53
5.08487484e-53
5.99519914e-53
7.00486857e-53
8.12164625e-53
9.3510586e-53
1.07014105e-52
1.21784151e-52
1.37908063e-52
1.55443983e-52
1.74482755e-52
1.95112927e-52
2.22943623e-52
1.28974474e-51
1.98743657e-49
3.80631454e-47
7.37948097e-45
1.44851541e-42
2.87129987e-40
5.76175277e-38
1.16638355e-35
2.39042283e-33
4.93559283e-31
1.03174591e-28
2.16711203e-26
4.5976463e-24
9.71338948e-22
2.0486231e-19
4.0406426e-17
7.5862173e-15
1.0179268e-54
2.58329588e-54
4.7471367e-54
7.57604879e-54
1.11544034e-53
1.55637531e-53
2.09130664e-53
2.72921399e-53
3.48289356e-53
4.36204604e-53
5.38139e-53
6.55040179e-53
7.88648999e-53
9.39710037e-53
1.11035829e-52
1.30110719e-52
1.51431747e-52
1.75026856e-52
2.01161219e-52
2.29818906e-52
2.61310255e-52
2.95715616e-52
3.67361984e-52
7.54321e-51
1.49863892e-48
3.15422044e-46
6.66350424e-44
1.41963363e-41
3.03281664e-39
6.54426475e-37
1.41478757e-34
3.09528735e-32
6.77544676e-30
1.50510299e-27
3.34262369e-25
7.55586906e-23
1.70544937e-20
3.94972327e-18
8.78110254e-16
2.00641113e-13
1.16405575e-54
3.19667191e-54
6.29294168e-54
1.06644885e-53
1.6520039e-53
2.40810016e-53
3.35768676e-53
4.52349627e-53
5.92849966e-53
7.5934958e-53
9.5388287e-53
1.17808629e-52
1.43346113e-52
1.72100348e-52
2.04145157e-52
2.39512829e-52
2.78178927e-52
3.20118806e-52
3.65177637e-52
4.13316105e-52
4.64339361e-52
5.21114171e-52
1.25892686e-51
1.51746858e-49
3.33000924e-47
7.33857187e-45
1.61623712e-42
3.56426365e-40
7.85972493e-38
1.73826787e-35
3.84525036e-33
8.54415518e-31
1.89891057e-28
4.24570262e-26
9.49439672e-24
2.13495265e-21
4.78839659e-19
1.07559826e-16
2.33834463e-14
4.94579852e-12
3.26867728e-54
8.72286363e-54
1.60402298e-53
2.50156711e-53
3.55264315e-53
4.74758633e-53
6.08184577e-53
7.55175476e-53
9.15758061e-53
1.08995517e-52
1.27811767e-52
1.48053295e-52
1.69777802e-52
1.93031285e-52
2.17885461e-52
2.44395584e-52
2.72639469e-52
3.02674338e-52
3.34577016e-52
3.68402401e-52
4.04521118e-52
5.09777862e-52
1.55090539e-50
3.31842901e-48
7.29263808e-46
1.596703e-43
3.4842899e-41
7.58036039e-39
1.64520559e-36
3.56279009e-34
7.70207973e-32
1.66246026e-29
3.58410591e-27
7.71846197e-25
1.66093332e-22
3.57146098e-20
7.67575284e-18
1.64873623e-15
3.53983258e-13
7.63716403e-11
1.42477956e-14
5.85900526e-14
1.51125919e-13
3.24279007e-13
6.32536755e-13
1.16458076e-12
2.05838951e-12
3.52384317e-12
5.85475115e-12
9.47077439e-12
1.49096511e-11
2.29092539e-11
3.43566092e-11
5.0435041e-11
7.25544914e-11
1.02449626e-10
1.42280002e-10
1.94487786e-10
2.62320718e-10
3.49205175e-10
4.59678208e-10
5.98739626e-10
7.72493204e-10
9.88175787e-10
1.25422615e-09
1.58089806e-09
1.97866979e-09
2.46292941e-09
3.04680363e-09
3.75189843e-09
4.59682147e-09
5.60630933e-09
6.80812742e-09
8.22886198e-09
9.90598264e-09
1.18698633e-08
1.41661214e-08
1.68306669e-08
1.99148017e-08
2.34629754e-08
2.75322114e-08
3.21781718e-08
3.74611419e-08
4.34435851e-08
5.01763964e-08
5.77133426e-08
6.60993589e-08
7.53750223e-08
8.55774899e-08
9.67424906e-08
1.08902317e-07
1.22088091e-07
1.36324007e-07
1.5163014e-07
1.68014387e-07
1.85475796e-07
2.03997796e-07
2.23553e-07
2.44102063e-07
2.65599124e-07
2.87995043e-07
3.11239087e-07
3.35285647e-07
3.60090655e-07
3.85625546e-07
4.11865252e-07
4.3880697e-07
4.66450115e-07
4.94812219e-07
5.23902479e-07
5.5373379e-07
5.84307996e-07
6.1561412e-07
6.47650703e-07
6.80383524e-07
7.13809863e-07
7.47938668e-07
7.82752966e-07
8.18260821e-07
8.54488085e-07
8.91469522e-07
9.29253194e-07
9.67903999e-07
1.0074918e-06
1.04808917e-06
1.08975579e-06
1.13253885e-06
1.17643993e-06
1.22141124e-06
1.26732682e-06
1.31394397e-06
1.36086097e-06
1.40745536e-06
1.452815e-06
1.49566065e-06
1.53427981e-06
1.56649936e-06
1.58973375e-06
1.60116034e-06
1.59804193e-06
1.57822152e-06
1.54066264e-06
1.48592784e-06
1.4163583e-06
1.33584888e-06
1.24917799e-06
1.16117071e-06
1.07593306e-06
9.96391077e-07
9.24246457e-07
8.60169415e-07
8.04116489e-07
7.55611365e-07
7.13947023e-07
6.78305103e-07
6.47803643e-07
6.21497249e-07
5.98345897e-07
5.77162705e-07
5.56553455e-07
5.34871952e-07
5.10274744e-07
4.8099008e-07
4.4585798e-07
4.04934196e-07
3.59746404e-07
3.12841336e-07
2.66933351e-07
2.24184314e-07
1.85922912e-07
1.52718475e-07
1.24593873e-07
1.01234921e-07
8.21603412e-08
6.68362726e-08
5.47419364e-08
4.54084768e-08
3.84396309e-08
3.35206005e-08
3.0444327e-08
2.91860096e-08
2.9904886e-08
3.2949716e-08
3.87530772e-08
4.72941999e-08
5.77675323e-08
6.91918929e-08
8.08658482e-08
9.23956517e-08
1.03427754e-07
1.13810071e-07
1.23478886e-07
1.3242165e-07
1.40619113e-07
1.48069549e-07
1.54789628e-07
1.60808485e-07
1.66161773e-07
1.70889062e-07
1.75032167e-07
1.78634354e-07
1.81739811e-07
1.84393393e-07
1.86640404e-07
1.88526353e-07
1.90096656e-07
1.9139631e-07
1.92469532e-07
1.93359377e-07
1.94107386e-07
1.94753241e-07
1.95334472e-07
1.95886228e-07
1.96441369e-07
1.97032354e-07
1.97686337e-07
1.98428906e-07
1.99284111e-07
2.00273316e-07
2.01415947e-07
2.02729603e-07
2.04230276e-07
2.0593261e-07
2.07849947e-07
2.09994268e-07
2.1237655e-07
2.15007734e-07
2.17899013e-07
2.2105948e-07
2.24496617e-07
2.28218068e-07
2.3224732e-07
2.3659397e-07
2.4126186e-07
2.46247708e-07
2.51564038e-07
2.572426e-07
2.63261202e-07
2.69584414e-07
2.76182678e-07
2.83074729e-07
2.90334548e-07
2.97894006e-07
3.05670307e-07
3.13666488e-07
3.21899761e-07
3.30525886e-07
3.39364865e-07
3.48278933e-07
3.57312985e-07
3.66492312e-07
3.75871416e-07
3.85209214e-07
3.94496045e-07
4.03688667e-07
4.12856135e-07
4.21903004e-07
4.30585421e-07
4.39045167e-07
4.47499207e-07
4.55928333e-07
4.64348335e-07
4.72756975e-07
4.81181507e-07
4.89605977e-07
4.97999825e-07
5.06288667e-07
5.1442609e-07
5.22464335e-07
5.30539626e-07
5.3883439e-07
5.47542374e-07
5.56830402e-07
5.6679704e-07
5.77454894e-07
5.8874564e-07
6.00568586e-07
6.12744004e-07
6.25000704e-07
6.37094716e-07
6.4890235e-07
6.60262155e-07
6.71034784e-07
6.811134e-07
6.90425073e-07
6.98929713e-07
7.06618283e-07
7.13511101e-07
7.19655868e-07
7.25125302e-07
7.3001384e-07
7.34432309e-07
7.38498877e-07
7.42325011e-07
7.45998179e-07
7.49573727e-07
7.52970047e-07
7.56122422e-07
7.5899552e-07
7.61490242e-07
7.63534528e-07
7.65084764e-07
7.66126524e-07
7.66670922e-07
7.66749818e-07
7.66413163e-07
7.65731838e-07
7.64810686e-07
7.63819738e-07
7.6305638e-07
2.9409713e-13
1.03468689e-12
2.32168866e-12
4.52609622e-12
8.28856344e-12
1.46334728e-11
2.50723268e-11
4.1816825e-11
6.77555472e-11
1.06781851e-10
1.63509727e-10
2.43950573e-10
3.54804107e-10
5.04620878e-10
7.02884597e-10
9.60585089e-10
1.29064018e-09
1.70665414e-09
2.22573362e-09
2.86420616e-09
3.64250018e-09
4.58141814e-09
5.70338079e-09
7.03490352e-09
8.59837452e-09
1.04253882e-08
1.2538897e-08
1.49711065e-08
1.77485038e-08
2.09028042e-08
2.44561163e-08
2.84340676e-08
3.28535116e-08
3.77301961e-08
4.30759162e-08
4.88973275e-08
5.52036797e-08
6.19955571e-08
6.92825648e-08
7.7062211e-08
8.53429582e-08
9.41187503e-08
1.03391226e-07
1.13157327e-07
1.23399585e-07
1.34118003e-07
1.4531068e-07
1.56982035e-07
1.6914258e-07
1.81808499e-07
1.95000017e-07
2.0874151e-07
2.230594e-07
2.37983017e-07
2.53542921e-07
2.69771549e-07
2.86699926e-07
3.04357164e-07
3.22766518e-07
3.41944832e-07
3.61900221e-07
3.82633878e-07
4.04140528e-07
4.26412555e-07
4.49443952e-07
4.73227501e-07
4.97768632e-07
5.23073601e-07
5.49158633e-07
5.76035679e-07
6.03719009e-07
6.32214746e-07
6.6152022e-07
6.91634843e-07
7.22535063e-07
7.54211727e-07
7.86669704e-07
8.19889802e-07
8.53873647e-07
8.88641264e-07
9.24218412e-07
9.60647348e-07
9.97983189e-07
1.03628125e-06
1.0755933e-06
1.11595437e-06
1.15737558e-06
1.19982094e-06
1.24319481e-06
1.28731715e-06
1.33188478e-06
1.37643001e-06
1.42026488e-06
1.46241525e-06
1.50155505e-06
1.53595641e-06
1.56348364e-06
1.58166414e-06
1.58788428e-06
1.57971364e-06
1.55537956e-06
1.51424578e-06
1.45720558e-06
1.38677469e-06
1.30681058e-06
1.22185031e-06
1.13635089e-06
1.05401943e-06
9.77445388e-07
9.08098489e-07
8.46524585e-07
7.92631289e-07
7.45940564e-07
7.05767235e-07
6.71319588e-07
6.41739589e-07
6.16099684e-07
5.93371355e-07
5.72375753e-07
5.51730465e-07
5.2981515e-07
5.04845558e-07
4.75158737e-07
4.39744707e-07
3.98793154e-07
3.53886451e-07
3.07523621e-07
2.62315391e-07
2.20316314e-07
1.82777853e-07
1.50226296e-07
1.22668564e-07
9.97896668e-08
8.11166493e-08
6.61282667e-08
5.43168614e-08
4.52263071e-08
3.84725648e-08
3.37516021e-08
3.08769021e-08
2.9836115e-08
3.07955209e-08
3.40979299e-08
4.01448358e-08
4.88345542e-08
5.93448113e-08
7.073271e-08
8.23326493e-08
9.37694328e-08
1.04706312e-07
1.14994171e-07
1.24573054e-07
1.33434156e-07
1.41554345e-07
1.48931767e-07
1.55584078e-07
1.61541019e-07
1.66838476e-07
1.71516039e-07
1.7561542e-07
1.79179654e-07
1.82252635e-07
1.84878883e-07
1.87103336e-07
1.88971118e-07
1.90527249e-07
1.91816333e-07
1.92882192e-07
1.93767506e-07
1.94513454e-07
1.95159384e-07
1.95742514e-07
1.96297712e-07
1.96857523e-07
1.97454399e-07
1.98115093e-07
1.98865063e-07
1.99728244e-07
2.00725889e-07
2.01877326e-07
2.03200071e-07
2.04710045e-07
2.06421855e-07
2.08348823e-07
2.10502866e-07
2.12894866e-07
2.1553576e-07
2.1843688e-07
2.21607268e-07
2.25054091e-07
2.28784387e-07
2.32822934e-07
2.37179274e-07
2.41856582e-07
2.4684947e-07
2.5217256e-07
2.5786053e-07
2.63891473e-07
2.70224586e-07
2.76828833e-07
2.83730819e-07
2.91003603e-07
2.9858e-07
3.0636666e-07
3.14367727e-07
3.22613948e-07
3.31259036e-07
3.40116583e-07
3.49035974e-07
3.58076861e-07
3.6727458e-07
3.76674716e-07
3.86032749e-07
3.95326791e-07
4.04528902e-07
4.13714606e-07
4.22782527e-07
4.31482085e-07
4.3995685e-07
4.48419755e-07
4.56854493e-07
4.65284513e-07
4.73699534e-07
4.82128038e-07
4.90557656e-07
4.98956869e-07
5.0725064e-07
5.15392711e-07
5.23436583e-07
5.31518558e-07
5.3981889e-07
5.48528009e-07
5.57810221e-07
5.67762688e-07
5.78397286e-07
5.89655795e-07
6.01439773e-07
6.13572494e-07
6.25779783e-07
6.37821144e-07
6.49576451e-07
6.60885091e-07
6.71608419e-07
6.81640578e-07
6.90909287e-07
6.99374764e-07
7.07028014e-07
7.13889192e-07
7.20005675e-07
7.25449718e-07
7.30315171e-07
7.34712171e-07
7.38758125e-07
7.42563746e-07
7.46215963e-07
7.49772708e-07
7.53140709e-07
7.56272536e-07
7.59123939e-07
7.61597964e-07
7.63623233e-07
7.65156497e-07
7.66183431e-07
7.66715074e-07
7.66783107e-07
7.66437257e-07
7.65748201e-07
7.6482065e-07
7.63824667e-07
7.63058056e-07
1.10669751e-11
3.37059251e-11
6.75977882e-11
1.22315405e-10
2.11908204e-10
3.57617422e-10
5.87936087e-10
9.37483228e-10
1.44360554e-09
2.14671131e-09
3.085883e-09
4.30210707e-09
5.83247346e-09
7.71536657e-09
9.98370907e-09
1.26694913e-08
1.5800532e-08
1.93995912e-08
2.34886058e-08
2.80824993e-08
3.31954161e-08
3.88341382e-08
4.50007847e-08
5.16914115e-08
5.88934494e-08
6.65961287e-08
7.47707209e-08
8.33900654e-08
9.24295092e-08
1.01848517e-07
1.11602471e-07
1.21645995e-07
1.31931568e-07
1.42418884e-07
1.5306996e-07
1.63860496e-07
1.74772394e-07
1.85798246e-07
1.96936581e-07
2.08183924e-07
2.19541915e-07
2.31005347e-07
2.42579197e-07
2.54269578e-07
2.66074059e-07
2.78012131e-07
2.90101998e-07
3.02365441e-07
3.14825184e-07
3.27503938e-07
3.40422828e-07
3.5360607e-07
3.67080727e-07
3.80879471e-07
3.95040902e-07
4.09608735e-07
4.24628691e-07
4.40145512e-07
4.56199367e-07
4.72823701e-07
4.90045113e-07
5.07885707e-07
5.26362867e-07
5.45497904e-07
5.65306578e-07
5.85808638e-07
6.07032742e-07
6.29005327e-07
6.5175692e-07
6.75316427e-07
6.99711614e-07
7.24962506e-07
7.5108067e-07
7.78069527e-07
8.05917561e-07
8.34609938e-07
8.64145867e-07
8.94506955e-07
9.25692336e-07
9.577159e-07
9.90600094e-07
1.02437735e-06
1.05908188e-06
1.09473951e-06
1.13135703e-06
1.16891308e-06
1.20734205e-06
1.24652516e-06
1.28626687e-06
1.32627376e-06
1.36612367e-06
1.40522367e-06
1.44276398e-06
1.47766786e-06
1.50855035e-06
1.53370352e-06
1.55113255e-06
1.55866762e-06
1.55419082e-06
1.53594603e-06
1.50294919e-06
1.45532956e-06
1.39455051e-06
1.32334862e-06
1.24537602e-06
1.16459573e-06
1.08468967e-06
1.00857862e-06
9.38221282e-07
8.74666153e-07
8.18239961e-07
7.68772478e-07
7.25792972e-07
6.88660662e-07
6.56635813e-07
6.28906901e-07
6.04580438e-07
5.82650351e-07
5.61956162e-07
5.41147425e-07
5.18670388e-07
4.92882963e-07
4.62366699e-07
4.26429033e-07
3.8551891e-07
3.41302637e-07
2.96157511e-07
2.52475028e-07
2.12091226e-07
1.76100577e-07
1.44944095e-07
1.18597876e-07
9.67459349e-08
7.89336153e-08
6.46669373e-08
5.34661508e-08
4.49022498e-08
3.86178409e-08
3.43310779e-08
3.19045544e-08
3.13487618e-08
3.28309356e-08
3.66990986e-08
4.32521092e-08
5.22306423e-08
6.27953539e-08
7.40926401e-08
8.55264769e-08
9.67554344e-08
1.07486671e-07
1.17569463e-07
1.26953496e-07
1.35638694e-07
1.43591509e-07
1.50810759e-07
1.57316361e-07
1.63139343e-07
1.68316112e-07
1.72886271e-07
1.76891275e-07
1.80373654e-07
1.83376659e-07
1.85944071e-07
1.8812003e-07
1.89948825e-07
1.91474621e-07
1.92741158e-07
1.93791414e-07
1.94667249e-07
1.95409064e-07
1.96055479e-07
1.96643044e-07
1.97206014e-07
1.97776236e-07
1.98386201e-07
1.99061735e-07
1.99828055e-07
2.00708827e-07
2.01725063e-07
2.02895886e-07
2.0423863e-07
2.05769061e-07
2.07501694e-07
2.09449818e-07
2.11625235e-07
2.14038627e-07
2.16700835e-07
2.19623421e-07
2.22815489e-07
2.26283788e-07
2.30033613e-07
2.34092151e-07
2.38468908e-07
2.43166451e-07
2.48176998e-07
2.53515907e-07
2.59222202e-07
2.65276312e-07
2.71632698e-07
2.78258085e-07
2.8518212e-07
2.92476768e-07
3.00082645e-07
3.07898737e-07
3.15922726e-07
3.24195524e-07
3.32870345e-07
3.41760053e-07
3.50703288e-07
3.59771628e-07
3.69004266e-07
3.784382e-07
3.8783634e-07
3.97159652e-07
4.06391455e-07
4.15610797e-07
4.24717714e-07
4.33417136e-07
4.41950075e-07
4.50449166e-07
4.58897489e-07
4.67345182e-07
4.75775747e-07
4.8421594e-07
4.92656436e-07
5.01064262e-07
5.09366511e-07
5.17518259e-07
5.25573763e-07
5.33668778e-07
5.4197941e-07
5.5068997e-07
5.59959001e-07
5.69880005e-07
5.8046312e-07
5.91650553e-07
6.03348663e-07
6.1538798e-07
6.2748633e-07
6.39412525e-07
6.51053397e-07
6.62249986e-07
6.7286533e-07
6.8279572e-07
6.91970298e-07
7.00349959e-07
7.07925792e-07
7.14717599e-07
7.20772049e-07
7.2616039e-07
7.30975192e-07
7.35325079e-07
7.39325801e-07
7.43086384e-07
7.46691977e-07
7.50223542e-07
7.53512391e-07
7.56600816e-07
7.59404893e-07
7.61833598e-07
7.63817243e-07
7.65313361e-07
7.66307844e-07
7.66811562e-07
7.66855802e-07
7.66489811e-07
7.65783817e-07
7.64842242e-07
7.63835233e-07
7.63061526e-07
4.44760236e-10
1.05621268e-09
1.8667148e-09
3.02753019e-09
4.80863269e-09
7.54249586e-09
1.14775501e-08
1.673162e-08
2.3296276e-08
3.10910321e-08
3.99944444e-08
4.98914939e-08
6.06500689e-08
7.2147421e-08
8.42425231e-08
9.6822641e-08
1.09773944e-07
1.23021656e-07
1.36518712e-07
1.50221346e-07
1.6408673e-07
1.78045871e-07
1.92030263e-07
2.05950286e-07
2.19746662e-07
2.3335661e-07
2.4674788e-07
2.59890762e-07
2.72787277e-07
2.85415426e-07
2.97765043e-07
3.09828592e-07
3.21614157e-07
3.33145671e-07
3.44463178e-07
3.55617617e-07
3.6665738e-07
3.77625985e-07
3.88546196e-07
3.99426286e-07
4.10265936e-07
4.21065818e-07
4.31836927e-07
4.42602325e-07
4.53382465e-07
4.6421564e-07
4.75132424e-07
4.86155437e-07
4.97297918e-07
5.0856568e-07
5.1996569e-07
5.31513504e-07
5.4323623e-07
5.55174352e-07
5.67375477e-07
5.79888706e-07
5.92756426e-07
6.06010827e-07
6.19674109e-07
6.33760839e-07
6.4828687e-07
6.63271104e-07
6.78741588e-07
6.94732095e-07
7.11281252e-07
7.28431721e-07
7.46230509e-07
7.64725346e-07
7.83965738e-07
8.03998382e-07
8.24863139e-07
8.46586641e-07
8.69180876e-07
8.92640099e-07
9.16947644e-07
9.4207774e-07
9.68021594e-07
9.94764435e-07
1.02230954e-06
1.05066994e-06
1.07986852e-06
1.10991976e-06
1.140821e-06
1.17254445e-06
1.20502081e-06
1.23813461e-06
1.27170732e-06
1.30549337e-06
1.33916282e-06
1.37227886e-06
1.40427506e-06
1.43442221e-06
1.46180013e-06
1.48527339e-06
1.50348751e-06
1.5149022e-06
1.51787332e-06
1.51079957e-06
1.49236017e-06
1.46175908e-06
1.41900004e-06
1.3650392e-06
1.30180308e-06
1.23199364e-06
1.15871754e-06
1.08503963e-06
1.01360337e-06
9.46383077e-07
8.84631906e-07
8.28954796e-07
7.79461577e-07
7.35922488e-07
6.97891219e-07
6.64786044e-07
6.35931347e-07
6.10572454e-07
5.87856388e-07
5.6680651e-07
5.46295604e-07
5.25041611e-07
5.01618235e-07
4.74627258e-07
4.43025636e-07
4.06560379e-07
3.65976918e-07
3.22984417e-07
2.79742273e-07
2.383389e-07
2.00319957e-07
1.66574766e-07
1.37434952e-07
1.12841093e-07
9.24768288e-08
7.59156099e-08
6.27039657e-08
5.24018475e-08
4.46197929e-08
3.90402612e-08
3.54243213e-08
3.36930088e-08
3.38670169e-08
3.61519252e-08
4.08499225e-08
4.80812943e-08
5.7395635e-08
6.798421e-08
7.91193522e-08
9.02936434e-08
1.01198229e-07
1.11627354e-07
1.21405373e-07
1.30501225e-07
1.38929424e-07
1.4663454e-07
1.53619828e-07
1.59908716e-07
1.65534078e-07
1.70533056e-07
1.74945225e-07
1.78811595e-07
1.82173914e-07
1.85074449e-07
1.87555872e-07
1.89661131e-07
1.91433268e-07
1.92915177e-07
1.94149323e-07
1.95177431e-07
1.96040149e-07
1.96776733e-07
1.97424729e-07
1.98019701e-07
1.98595006e-07
1.99181399e-07
1.99812587e-07
2.00509824e-07
2.01301185e-07
2.02208793e-07
2.03253334e-07
2.04453633e-07
2.0582676e-07
2.07388249e-07
2.09152473e-07
2.11132662e-07
2.13340481e-07
2.15786322e-07
2.18480831e-07
2.21435789e-07
2.24660555e-07
2.28161202e-07
2.31942872e-07
2.36029442e-07
2.40436114e-07
2.4516307e-07
2.50203159e-07
2.55567023e-07
2.61298799e-07
2.67383606e-07
2.73776124e-07
2.8044596e-07
2.87401554e-07
2.94723912e-07
3.0236399e-07
3.102318e-07
3.18307576e-07
3.2661569e-07
3.35326303e-07
3.44250739e-07
3.5324391e-07
3.62370046e-07
3.71648207e-07
3.8112332e-07
3.90571335e-07
3.99956687e-07
4.09245084e-07
4.18508452e-07
4.27662852e-07
4.36467565e-07
4.4505498e-07
4.53552029e-07
4.62018287e-07
4.70486619e-07
4.78938874e-07
4.87401118e-07
4.958569e-07
5.04272738e-07
5.12582414e-07
5.20744974e-07
5.28815122e-07
5.3692575e-07
5.45247829e-07
5.53957742e-07
5.63205402e-07
5.73077739e-07
5.83581926e-07
5.94661098e-07
6.06228505e-07
6.18127125e-07
6.30058974e-07
6.4181244e-07
6.53281208e-07
6.64308954e-07
6.74761505e-07
6.84538444e-07
6.93571053e-07
7.0182124e-07
7.09280219e-07
7.15967254e-07
7.21927961e-07
7.27232076e-07
7.31970253e-07
7.36248849e-07
7.40181134e-07
7.43873599e-07
7.47407605e-07
7.50841464e-07
7.54075815e-07
7.57095179e-07
7.59827756e-07
7.62188186e-07
7.6410915e-07
7.65549332e-07
7.66494932e-07
7.66956563e-07
7.66964924e-07
7.66568547e-07
7.65836984e-07
7.64874233e-07
7.63850579e-07
7.6306618e-07
1.71499646e-08
2.47505824e-08
3.24769468e-08
4.43780712e-08
6.47042493e-08
9.44471883e-08
1.30186624e-07
1.67541744e-07
2.03314539e-07
2.35916157e-07
2.65126868e-07
2.91448536e-07
3.15208043e-07
3.36616103e-07
3.55915632e-07
3.7349813e-07
3.89953419e-07
4.05897137e-07
4.21747716e-07
4.37580142e-07
4.53169015e-07
4.68153698e-07
4.82219508e-07
4.95209875e-07
5.0715763e-07
5.18207758e-07
5.28576881e-07
5.38422276e-07
5.47798876e-07
5.56703706e-07
5.65127234e-07
5.73092449e-07
5.80692656e-07
5.88076642e-07
5.95412182e-07
6.02837056e-07
6.10412097e-07
6.18120421e-07
6.25883638e-07
6.33621564e-07
6.41286532e-07
6.48891842e-07
6.56499213e-07
6.64200086e-07
6.7207577e-07
6.80183046e-07
6.88522805e-07
6.97051423e-07
7.05708622e-07
7.14449385e-07
7.23266007e-07
7.32194337e-07
7.4130081e-07
7.50664703e-07
7.60349575e-07
7.70389384e-07
7.80780649e-07
7.91496097e-07
8.0250399e-07
8.13784779e-07
8.2534744e-07
8.37224813e-07
8.49473428e-07
8.62146027e-07
8.75306607e-07
8.89012164e-07
9.03318084e-07
9.18285707e-07
9.3397546e-07
9.50437004e-07
9.67701962e-07
9.85774602e-07
1.00463468e-06
1.02423977e-06
1.04454714e-06
1.06551674e-06
1.08713575e-06
1.10940237e-06
1.13233196e-06
1.15594284e-06
1.18024273e-06
1.20520904e-06
1.23077369e-06
1.25681474e-06
1.28314906e-06
1.30953074e-06
1.33564365e-06
1.36110334e-06
1.38544673e-06
1.4081161e-06
1.42844676e-06
1.44565143e-06
1.45881809e-06
1.46691812e-06
1.4688441e-06
1.46348391e-06
1.44982277e-06
1.42708461e-06
1.39493038e-06
1.35355742e-06
1.30378654e-06
1.24705954e-06
1.18531207e-06
1.12075575e-06
1.05560917e-06
9.91873103e-07
9.31146661e-07
8.745541e-07
8.22761347e-07
7.76034492e-07
7.34334979e-07
6.97409503e-07
6.64851949e-07
6.36142645e-07
6.10668254e-07
5.87731701e-07
5.66519933e-07
5.46095532e-07
5.25394984e-07
5.03272928e-07
4.78516253e-07
4.50086509e-07
4.17419303e-07
3.80751655e-07
3.41046884e-07
2.99954125e-07
2.59309419e-07
2.2086709e-07
1.85849491e-07
1.54923198e-07
1.28304892e-07
1.05905403e-07
8.74075758e-08
7.24238984e-08
6.05539753e-08
5.14062189e-08
4.46414534e-08
4.00029087e-08
3.73023156e-08
3.6502397e-08
3.76722451e-08
4.10236468e-08
4.67403308e-08
5.4691891e-08
6.428715e-08
7.48191296e-08
8.57018709e-08
9.65205024e-08
1.07016903e-07
1.17019457e-07
1.26401078e-07
1.35125825e-07
1.4322958e-07
1.50615041e-07
1.57298607e-07
1.63308615e-07
1.6868026e-07
1.73451356e-07
1.77661477e-07
1.81350912e-07
1.84560327e-07
1.87330677e-07
1.8970317e-07
1.91719189e-07
1.93420154e-07
1.9484731e-07
1.96041474e-07
1.97042756e-07
1.97890247e-07
1.98621727e-07
1.99273365e-07
1.99879462e-07
2.00472237e-07
2.01080893e-07
2.01739966e-07
2.02467826e-07
2.03292936e-07
2.04236646e-07
2.05319176e-07
2.06558966e-07
2.07972756e-07
2.09575787e-07
2.11382218e-07
2.13405162e-07
2.15656171e-07
2.18145381e-07
2.20883099e-07
2.23881024e-07
2.27148936e-07
2.30692442e-07
2.34516644e-07
2.38641521e-07
2.43086326e-07
2.47850015e-07
2.52932573e-07
2.58332717e-07
2.64096006e-07
2.70215797e-07
2.76655487e-07
2.83398121e-07
2.90397004e-07
2.97749759e-07
3.05422783e-07
3.13363845e-07
3.21529655e-07
3.29881804e-07
3.38631438e-07
3.47583878e-07
3.56655987e-07
3.65877993e-07
3.75210325e-07
3.84730763e-07
3.94230221e-07
4.03716261e-07
4.13093824e-07
4.22409958e-07
4.31615044e-07
4.40506612e-07
4.49189434e-07
4.57728765e-07
4.66219029e-07
4.74708841e-07
4.83187133e-07
4.91682836e-07
5.00156891e-07
5.08577165e-07
5.1688978e-07
5.25061562e-07
5.33146322e-07
5.41271393e-07
5.49601993e-07
5.58305636e-07
5.67521082e-07
5.77325491e-07
5.87721908e-07
5.98655083e-07
6.10046498e-07
6.21759148e-07
6.33464692e-07
6.44991918e-07
6.56233565e-07
6.6703781e-07
6.77274745e-07
6.86848415e-07
6.95692921e-07
7.03771483e-07
7.11075466e-07
7.17623425e-07
7.2345959e-07
7.28651712e-07
7.33287924e-07
7.37471615e-07
7.41312809e-07
7.44914717e-07
7.48354661e-07
7.51678334e-07
7.54823873e-07
7.57748716e-07
7.60386371e-07
7.62656495e-07
7.64494605e-07
7.65860834e-07
7.66741776e-07
7.67147699e-07
7.67108536e-07
7.66671881e-07
7.65906404e-07
7.64915549e-07
7.63869801e-07
7.63071223e-07
2.1609752e-07
1.83090713e-07
2.03474982e-07
2.91186864e-07
4.4739645e-07
6.05515001e-07
7.04166902e-07
7.44268908e-07
7.47966969e-07
7.35529345e-07
7.21896135e-07
7.14057799e-07
7.09317419e-07
7.0558181e-07
7.03132346e-07
7.03388172e-07
7.07848863e-07
7.17036651e-07
7.29438191e-07
7.4226009e-07
7.52927306e-07
7.60193288e-07
7.64190373e-07
7.65952666e-07
7.66794879e-07
7.67807763e-07
7.6952048e-07
7.71758142e-07
7.74035128e-07
7.75965842e-07
7.77463235e-07
7.78725745e-07
7.8014064e-07
7.82116282e-07
7.84931791e-07
7.88611478e-07
7.92899956e-07
7.97412426e-07
8.01824864e-07
8.06006213e-07
8.10020685e-07
8.14072116e-07
8.18402727e-07
8.23210695e-07
8.28594645e-07
8.34504701e-07
8.40759524e-07
8.47147719e-07
8.53525944e-07
8.59864147e-07
8.66238557e-07
8.72790923e-07
8.79670902e-07
8.86988344e-07
8.94770072e-07
9.02964635e-07
9.11465185e-07
9.2016558e-07
9.2900208e-07
9.37969872e-07
9.47122584e-07
9.56547904e-07
9.66341179e-07
9.76567832e-07
9.87287243e-07
9.98551115e-07
1.01041278e-06
1.02293189e-06
1.03616261e-06
1.05013463e-06
1.06484413e-06
1.08024498e-06
1.0962663e-06
1.11282449e-06
1.12985827e-06
1.14733041e-06
1.16524109e-06
1.18361128e-06
1.20246957e-06
1.22183147e-06
1.24167666e-06
1.26193148e-06
1.28245667e-06
1.30304367e-06
1.32342126e-06
1.34325636e-06
1.36216304e-06
1.37970538e-06
1.39539118e-06
1.40866412e-06
1.41889947e-06
1.42540184e-06
1.4274185e-06
1.42416433e-06
1.41487212e-06
1.39886611e-06
1.3756439e-06
1.34497886e-06
1.30705344e-06
1.26244109e-06
1.21213346e-06
1.15748696e-06
1.10009874e-06
1.04164807e-06
9.83724735e-07
9.27718902e-07
8.74713241e-07
8.25447489e-07
7.8033951e-07
7.39523787e-07
7.02912485e-07
6.70256545e-07
6.41177839e-07
6.15190501e-07
5.91714471e-07
5.70091497e-07
5.49535286e-07
5.29152324e-07
5.07961822e-07
4.8498347e-07
4.59202333e-07
4.29880013e-07
3.9678492e-07
3.6045064e-07
3.21847292e-07
2.82509226e-07
2.43999022e-07
2.07887545e-07
1.7517831e-07
1.46395389e-07
1.21687242e-07
1.00956025e-07
8.38793236e-08
7.01055645e-08
5.92776636e-08
5.1038648e-08
4.50888796e-08
4.12266938e-08
3.92981668e-08
3.92858833e-08
4.12805146e-08
4.54642788e-08
5.18770442e-08
6.02266105e-08
6.99153309e-08
8.03308574e-08
9.09781236e-08
1.01501062e-07
1.11670879e-07
1.21340451e-07
1.3040489e-07
1.38833251e-07
1.46674862e-07
1.53807557e-07
1.60253768e-07
1.66045131e-07
1.71218281e-07
1.75811655e-07
1.79864604e-07
1.83416762e-07
1.86507883e-07
1.89177843e-07
1.91466663e-07
1.93414475e-07
1.95061406e-07
1.96447396e-07
1.97611961e-07
1.98593939e-07
1.99431203e-07
2.00160374e-07
2.00816546e-07
2.01433034e-07
2.02041182e-07
2.02668824e-07
2.03351444e-07
2.04105054e-07
2.04958257e-07
2.05931927e-07
2.07045894e-07
2.08318293e-07
2.09765616e-07
2.11402892e-07
2.13244082e-07
2.15302138e-07
2.17588548e-07
2.20113408e-07
2.2288681e-07
2.25920098e-07
2.29223008e-07
2.32801437e-07
2.366605e-07
2.40818212e-07
2.45294494e-07
2.50088782e-07
2.55202702e-07
2.60634754e-07
2.66427196e-07
2.72579853e-07
2.79054901e-07
2.85845139e-07
2.9288569e-07
3.00268786e-07
3.07979704e-07
3.15969886e-07
3.24192652e-07
3.32590691e-07
3.41382391e-07
3.50369611e-07
3.59487266e-07
3.68770723e-07
3.7815762e-07
3.87727373e-07
3.97277264e-07
4.06825154e-07
4.16265945e-07
4.25635249e-07
4.34890314e-07
4.43842935e-07
4.52589478e-07
4.61172231e-07
4.69691011e-07
4.78202339e-07
4.86701182e-07
4.95216317e-07
5.03703492e-07
5.12127633e-07
5.20441321e-07
5.2861772e-07
5.36711054e-07
5.44844969e-07
5.53178819e-07
5.61872524e-07
5.71055896e-07
5.80799548e-07
5.911039e-07
6.01914849e-07
6.13159003e-07
6.24721222e-07
6.36234262e-07
6.47581667e-07
6.58639283e-07
6.69261638e-07
6.79322992e-07
6.88731131e-07
6.97422405e-07
7.05361062e-07
7.12538587e-07
7.18972965e-07
7.24707305e-07
7.29807763e-07
7.34360442e-07
7.38466347e-07
7.4223291e-07
7.4576075e-07
7.49124422e-07
7.52364284e-07
7.55432937e-07
7.5827954e-07
7.60839828e-07
7.63036584e-07
7.64807406e-07
7.66113546e-07
7.66941907e-07
7.67302486e-07
7.67224599e-07
7.66755089e-07
7.65961926e-07
7.64948109e-07
7.63884297e-07
7.63074127e-07
8.85867027e-08
1.12748749e-07
1.15706502e-07
1.12643642e-07
1.08055867e-07
1.03226954e-07
9.85393199e-08
9.41498349e-08
9.00855659e-08
8.6414328e-08
8.31632794e-08
8.03122861e-08
7.78217759e-08
7.56532927e-08
7.37708683e-08
7.21395085e-08
7.07234122e-08
6.948968e-08
6.84133985e-08
6.74740033e-08
6.66514488e-08
6.59283243e-08
6.52917043e-08
6.47308564e-08
6.42352437e-08
6.37958183e-08
6.34057413e-08
6.30589712e-08
6.27505602e-08
6.24760357e-08
6.22313788e-08
6.20131153e-08
6.18191034e-08
6.16474268e-08
6.14969506e-08
6.13680799e-08
6.12631571e-08
6.11994854e-08
6.14713057e-08
7.34522321e-08
4.92514803e-08
7.85827061e-08
9.30850457e-08
9.98860619e-08
1.02566972e-07
1.02952673e-07
1.01844668e-07
9.97323125e-08
9.69580139e-08
9.38811159e-08
9.07670872e-08
8.77522408e-08
8.4907994e-08
8.22844281e-08
7.99031594e-08
7.77619475e-08
7.5847115e-08
7.41403805e-08
7.26223921e-08
7.12745624e-08
7.00787356e-08
6.90166651e-08
6.80726491e-08
6.7233714e-08
6.64878821e-08
6.58234291e-08
6.52309134e-08
6.47021507e-08
6.42300004e-08
6.38083654e-08
6.3431773e-08
6.30949302e-08
6.27942762e-08
6.25268867e-08
6.22905964e-08
6.20847528e-08
6.19115679e-08
6.17748453e-08
6.17268692e-08
6.30572218e-08
2.89896504e-08
5.28995442e-08
6.92778589e-08
8.00275209e-08
8.68783073e-08
9.11013133e-08
9.3487919e-08
9.44864826e-08
9.44100298e-08
9.35484559e-08
9.21464607e-08
9.03859594e-08
8.84094014e-08
8.63375509e-08
8.42582371e-08
8.22280013e-08
8.0284144e-08
7.84527484e-08
7.67463214e-08
7.51682191e-08
7.37188709e-08
7.23955274e-08
7.11909836e-08
7.00970873e-08
6.91066132e-08
6.82117056e-08
6.74042711e-08
6.66760562e-08
6.60192215e-08
6.54271049e-08
6.48942828e-08
6.44151174e-08
6.39844891e-08
6.35980188e-08
6.32522651e-08
6.29441831e-08
6.26724898e-08
6.24343803e-08
6.22330748e-08
6.21799256e-08
2.41873205e-08
4.41023432e-08
5.94000192e-08
7.05785806e-08
7.84621398e-08
8.38392408e-08
8.73496175e-08
8.9454601e-08
9.04862354e-08
9.06943563e-08
9.02776165e-08
8.93939533e-08
8.81697779e-08
8.671236e-08
8.51106121e-08
8.34338158e-08
8.17353666e-08
8.00574647e-08
7.84305113e-08
7.68747876e-08
7.54041561e-08
7.40272558e-08
7.27473851e-08
7.15645762e-08
7.04767592e-08
6.94808385e-08
6.85722586e-08
6.77453617e-08
6.69939988e-08