/*--------------------------------*- C++ -*----------------------------------*\
  =========                 |
  \\      /  F ield         | OpenFOAM: The Open Source CFD Toolbox
   \\    /   O peration     | Website:  https://openfoam.org
    \\  /    A nd           | Version:  6
     \\/     M anipulation  |
\*---------------------------------------------------------------------------*/
FoamFile
{
    version     2.0;
    format      ascii;
    class       volScalarField;
    location    "25000";
    object      HCCO;
}
// * * * * * * * * * * * * * * * * * * * * * * * * * * * * * * * * * * * * * //

dimensions      [0 0 0 0 0 0 0];

internalField   nonuniform List<scalar> 
44870
(
4.38926568e-112
3.44103994e-110
5.77543547e-108
1.04254768e-105
1.8972141e-103
3.48331673e-101
6.46082871e-99
1.21241989e-96
2.30568685e-94
4.45077215e-92
8.73597773e-90
1.74621509e-87
3.56043228e-85
7.41461016e-83
1.57931186e-80
3.44389164e-78
7.69720144e-76
1.76428349e-73
4.15082134e-71
1.00260335e-68
2.48783403e-66
6.34108305e-64
1.66088492e-61
4.46846952e-59
1.23515441e-56
3.50500199e-54
1.02102672e-51
3.04968452e-49
9.33551025e-47
2.92359814e-44
9.35594437e-42
3.05070525e-39
1.01096383e-36
3.38715864e-34
1.14057061e-31
3.8186284e-29
1.25235826e-26
3.91539528e-24
1.10756848e-21
2.5810572e-19
5.45192775e-112
1.08668206e-110
1.66536329e-108
2.78465475e-106
4.68406376e-104
7.9407489e-102
1.36008508e-99
2.36080987e-97
4.16357602e-95
7.48258191e-93
1.37375572e-90
2.58376515e-88
4.99029042e-86
9.92491173e-84
2.03748512e-81
4.32952683e-79
9.54823346e-77
2.19143419e-74
5.24925867e-72
1.31552258e-69
3.45820792e-67
9.5506976e-65
2.77534496e-62
8.48573445e-60
2.72985188e-57
9.2242857e-55
3.26953388e-52
1.21230048e-49
4.6932999e-47
1.89119743e-44
7.91555778e-42
3.42884375e-39
1.53293747e-36
7.03434577e-34
3.29483426e-31
1.55877898e-28
7.34829065e-26
3.37361827e-23
1.43795336e-20
5.36540192e-18
2.46273876e-111
7.96878829e-111
1.92878489e-109
2.68177232e-107
3.93242976e-105
5.83959752e-103
8.80322082e-101
1.3547397e-98
2.12895068e-96
3.43435474e-94
5.68769407e-92
9.71996204e-90
1.71272431e-87
3.13156273e-85
5.9245334e-83
1.16997676e-80
2.40324897e-78
5.17824879e-76
1.16705668e-73
2.77397519e-71
6.93655938e-69
1.84213369e-66
5.19697893e-64
1.58520443e-61
5.30797048e-59
2.03547884e-56
9.25284482e-54
5.12043195e-51
3.34989773e-48
2.47859368e-45
1.96396585e-42
1.62106325e-39
1.35370604e-36
1.1353355e-33
9.37095617e-31
7.6070267e-28
5.93167756e-25
4.44270398e-22
3.02855896e-19
1.87039634e-16
1.54578307e-111
2.48410541e-111
8.86579899e-111
8.06911853e-109
9.77256768e-107
1.22373682e-104
1.57499032e-102
2.09497745e-100
2.87216231e-98
4.08778449e-96
6.02170876e-94
9.25740035e-92
1.47799448e-89
2.47768675e-87
4.32422081e-85
7.97119994e-83
1.53870965e-80
3.15534638e-78
6.86904479e-76
1.64269991e-73
4.6482749e-71
1.85984495e-68
1.16738348e-65
1.00954097e-62
1.00274502e-59
1.05302069e-56
1.13238574e-53
1.23644612e-50
1.35664991e-47
1.49334728e-44
1.62960531e-41
1.76220559e-38
1.86317491e-35
1.92756659e-32
1.92430275e-29
1.85582087e-26
1.70131762e-23
1.48060612e-20
1.18315572e-17
8.51170503e-15
1.10769804e-110
1.36109159e-110
4.4805432e-111
7.41819512e-111
6.74969514e-109
7.93267341e-107
9.700242e-105
1.23688932e-102
1.64005122e-100
2.27258174e-98
3.28256405e-96
4.97365977e-94
7.89705543e-92
1.34332738e-89
2.6206159e-87
7.60188318e-85
4.23145399e-82
3.60113194e-79
3.48128652e-76
3.45714845e-73
3.44875643e-70
3.43928867e-67
3.42674341e-64
3.41043393e-61
3.39140792e-58
3.37008802e-55
3.34693051e-52
3.32214599e-49
3.29698696e-46
3.27049546e-43
3.24453923e-40
3.21775459e-37
3.19190096e-34
3.16527905e-31
3.14019694e-28
3.11523122e-25
3.09135757e-22
3.06815494e-19
3.04560989e-16
3.04295287e-13
2.12205037e-17
4.57689898e-17
6.18994451e-17
6.85693643e-17
6.78460289e-17
6.68187135e-17
8.23346796e-17
1.24508002e-16
1.87353396e-16
2.56259184e-16
3.15046878e-16
3.56641917e-16
3.84414131e-16
4.14036543e-16
4.61975653e-16
5.37464413e-16
6.39534313e-16
7.56395829e-16
8.77981383e-16
9.9549952e-16
1.11805611e-15
1.2690978e-15
1.48734298e-15
1.82041598e-15
2.31724406e-15
3.02501781e-15
3.9688683e-15
5.19955866e-15
6.71784878e-15
8.63377555e-15
1.10618599e-14
1.42547587e-14
1.86230785e-14
2.46381909e-14
3.30794983e-14
4.46143904e-14
6.02972934e-14
8.09280361e-14
1.07845933e-13
1.42417343e-13
1.87006649e-13
2.44834051e-13
3.20602354e-13
4.20420606e-13
5.52909259e-13
7.27526928e-13
9.55897576e-13
1.25190976e-12
1.63264646e-12
2.12018446e-12
2.74351162e-12
3.54175005e-12
4.56597745e-12
5.88289575e-12
7.57520046e-12
9.74532038e-12
1.25155687e-11
1.60341773e-11
2.0479539e-11
2.6070014e-11
3.30733381e-11
4.18159605e-11
5.26999299e-11
6.62069337e-11
8.29367895e-11
1.03592449e-10
1.2906938e-10
1.60424953e-10
1.98999306e-10
2.46334667e-10
3.04279879e-10
3.74935126e-10
4.60593663e-10
5.64124848e-10
6.88285669e-10
8.3739183e-10
1.015017e-09
1.22680292e-09
1.4789058e-09
1.77887231e-09
2.13522627e-09
2.55769673e-09
3.0578565e-09
3.64887651e-09
4.34645694e-09
5.16856966e-09
6.13845208e-09
7.28190059e-09
8.63091294e-09
1.02243045e-08
1.21074807e-08
1.43359116e-08
1.69734715e-08
2.00960526e-08
2.37939617e-08
2.81756011e-08
3.3371762e-08
3.95430133e-08
4.68874858e-08
5.56548184e-08
6.61560119e-08
7.87765513e-08
9.39956599e-08
1.12417e-07
1.34782279e-07
1.62041742e-07
1.95418815e-07
2.36482856e-07
2.87350591e-07
3.50809149e-07
4.30619174e-07
5.31870983e-07
6.6155309e-07
8.29456646e-07
1.0493319e-06
1.34055778e-06
1.73073796e-06
2.2592156e-06
2.98122964e-06
3.97138629e-06
5.32335003e-06
7.13521931e-06
9.46634507e-06
1.22610252e-05
1.5279677e-05
1.8113574e-05
2.03240843e-05
2.16130014e-05
2.19113783e-05
2.1345076e-05
2.01394636e-05
1.85322897e-05
1.67319244e-05
1.48954175e-05
1.31234373e-05
1.14762148e-05
9.97925039e-06
8.63900085e-06
7.4520787e-06
6.41084292e-06
5.49141637e-06
4.61904969e-06
3.70653942e-06
2.75063642e-06
1.91810114e-06
1.32152778e-06
9.20128927e-07
6.47891454e-07
4.6376484e-07
3.34217526e-07
2.38352076e-07
1.71274529e-07
1.23753139e-07
8.98051756e-08
6.54081129e-08
4.77929575e-08
3.50244428e-08
2.57369336e-08
1.89599142e-08
1.40006186e-08
1.03619011e-08
7.68551054e-09
5.71234397e-09
4.25439419e-09
3.17483546e-09
2.37381714e-09
1.77828571e-09
1.33466537e-09
1.00357593e-09
7.56009256e-10
5.70553485e-10
4.31373656e-10
3.26740166e-10
2.47953567e-10
1.88508955e-10
1.43545772e-10
1.09493008e-10
8.36642878e-11
6.40401665e-11
4.91048758e-11
3.7719056e-11
2.90247067e-11
2.237465e-11
1.72801618e-11
1.3371557e-11
1.0368378e-11
8.05750662e-12
6.27728509e-12
4.90541471e-12
3.84942488e-12
3.0397765e-12
2.42265865e-12
1.94845538e-12
1.58217329e-12
1.29719028e-12
1.07351603e-12
8.9659015e-13
7.56188075e-13
6.44647705e-13
5.55425802e-13
4.83720825e-13
4.25806672e-13
3.79298532e-13
3.41925089e-13
3.118151e-13
2.87442364e-13
2.67697981e-13
2.51770461e-13
2.38737109e-13
2.27898242e-13
2.18649436e-13
2.10681716e-13
2.03622169e-13
1.97238284e-13
1.91248075e-13
1.85456163e-13
1.79747649e-13
1.73876515e-13
1.68047913e-13
1.62391271e-13
1.56618169e-13
1.5079247e-13
1.44945454e-13
1.39071129e-13
1.33168195e-13
1.27250968e-13
1.21339989e-13
1.15457639e-13
1.0963399e-13
1.03914757e-13
9.83534099e-14
9.29986543e-14
8.78873803e-14
8.3040341e-14
7.84620345e-14
7.41467844e-14
7.00911561e-14
6.62764851e-14
6.25857252e-14
5.90539012e-14
5.56765837e-14
5.24378187e-14
4.93245934e-14
4.63294233e-14
4.34486181e-14
4.06804076e-14
3.802388e-14
3.54786379e-14
3.30449295e-14
3.07240446e-14
2.85187983e-14
2.64338482e-14
2.44755062e-14
2.26507639e-14
2.09653882e-14
1.94190405e-14
1.8009739e-14
1.6730419e-14
1.55675768e-14
1.45071583e-14
1.35354557e-14
1.26399485e-14
1.18098261e-14
1.10362566e-14
1.03126524e-14
9.63527631e-15
9.0049045e-15
8.43100695e-15
7.94211533e-15
7.61054056e-15
6.13011601e-16
9.72665896e-16
9.9757735e-16
8.7174041e-16
7.02447195e-16
6.98864428e-16
1.31259677e-15
2.5124221e-15
3.84108513e-15
4.88224124e-15
5.41276321e-15
5.53289395e-15
5.59927096e-15
6.11225742e-15
7.34835613e-15
9.23261804e-15
1.14465476e-14
1.35753157e-14
1.54196991e-14
1.69997713e-14
1.88313092e-14
2.17029592e-14
2.64993776e-14
3.4076607e-14
4.48832672e-14
5.93578896e-14
7.72373808e-14
9.86004281e-14
1.23284196e-13
1.5272023e-13
1.89212881e-13
2.37040437e-13
3.01546288e-13
3.88684905e-13
5.04453684e-13
6.52889006e-13
8.37510622e-13
1.05937714e-12
1.32280744e-12
1.63344927e-12
2.00569166e-12
2.45777468e-12
3.0162262e-12
3.70787596e-12
4.5658612e-12
5.61711094e-12
6.8900774e-12
8.41648636e-12
1.0237628e-11
1.24121964e-11
1.50214581e-11
1.81732334e-11
2.19988602e-11
2.66512633e-11
3.22975031e-11
3.91223781e-11
4.73313925e-11
5.71709608e-11
6.89423332e-11
8.3024087e-11
9.98788023e-11
1.20070254e-10
1.44270146e-10
1.73274502e-10
2.08024861e-10
2.4957337e-10
2.99233657e-10
3.58481751e-10
4.29112116e-10
5.13085033e-10
6.12673925e-10
7.30383933e-10
8.68938539e-10
1.03182578e-09
1.22242869e-09
1.44621682e-09
1.70765681e-09
2.0139249e-09
2.37261606e-09
2.79298383e-09
3.28492965e-09
3.85980549e-09
4.53101661e-09
5.3136435e-09
6.22570985e-09
7.28823421e-09
8.52823573e-09
9.97592941e-09
1.16683345e-08
1.36508569e-08
1.5975288e-08
1.87039581e-08
2.19094874e-08
2.56773203e-08
3.01088699e-08
3.53254904e-08
4.1473348e-08
4.87317705e-08
5.73219053e-08
6.75228634e-08
7.96793159e-08
9.42172336e-08
1.11665441e-07
1.3268739e-07
1.5809216e-07
1.88918094e-07
2.2649632e-07
2.72536883e-07
3.29342267e-07
3.99931616e-07
4.88341928e-07
6.00024756e-07
7.42459813e-07
9.26051883e-07
1.16531313e-06
1.48052114e-06
1.9003403e-06
2.46520587e-06
3.23106353e-06
4.27189409e-06
5.67812716e-06
7.53971492e-06
9.90127627e-06
1.26880802e-05
1.56485613e-05
1.8379809e-05
2.04677341e-05
2.16412421e-05
2.18497184e-05
2.12250443e-05
1.99892847e-05
1.83720804e-05
1.65754344e-05
1.47506642e-05
1.29927995e-05
1.13598204e-05
9.87507368e-06
8.54505359e-06
7.36740645e-06
6.33724204e-06
5.42114851e-06
4.54402867e-06
3.62484565e-06
2.67804148e-06
1.87008938e-06
1.29352214e-06
9.03539657e-07
6.37627421e-07
4.57296059e-07
3.29346459e-07
2.35278427e-07
1.69299952e-07
1.22447029e-07
8.89247379e-08
6.48071279e-08
4.73791177e-08
3.47374959e-08
2.55367689e-08
1.88195446e-08
1.39017271e-08
1.02919435e-08
7.6358348e-09
5.67694747e-09
4.22909067e-09
3.15669193e-09
2.3607701e-09
1.76887781e-09
1.32786374e-09
9.98646112e-10
7.52427384e-10
5.67944791e-10
4.29469309e-10
3.25347067e-10
2.46933967e-10
1.87760589e-10
1.42992432e-10
1.09084285e-10
8.33620436e-11
6.38162433e-11
4.89386761e-11
3.75955081e-11
2.89327316e-11
2.23060614e-11
1.72289346e-11
1.33332984e-11
1.03398518e-11
8.03624903e-12
6.26143426e-12
4.89366964e-12
3.84091815e-12
3.03377289e-12
2.41847129e-12
1.94545819e-12
1.58007035e-12
1.29580205e-12
1.07262734e-12
8.96004721e-13
7.55803551e-13
6.44484966e-13
5.55456908e-13
4.83879574e-13
4.26018535e-13
3.79547288e-13
3.42240895e-13
3.12185432e-13
2.87834599e-13
2.6808268e-13
2.52153846e-13
2.39127136e-13
2.28285724e-13
2.19024085e-13
2.11036708e-13
2.0396393e-13
1.97568154e-13
1.91562459e-13
1.85751762e-13
1.80024415e-13
1.74128358e-13
1.68282241e-13
1.62619178e-13
1.56822445e-13
1.50974817e-13
1.45108868e-13
1.39217795e-13
1.3329865e-13
1.27365734e-13
1.21440823e-13
1.15546785e-13
1.09712897e-13
1.03984084e-13
9.84137261e-14
9.30504071e-14
8.79306944e-14
8.30751575e-14
7.84884238e-14
7.41650924e-14
7.01022008e-14
6.62853684e-14
6.2585748e-14
5.90483129e-14
5.56672526e-14
5.24256137e-14
4.93101767e-14
4.63134342e-14
4.34316519e-14
4.0662979e-14
3.80064093e-14
3.54614573e-14
3.30282958e-14
3.07081517e-14
2.85037837e-14
2.6419795e-14
2.44624423e-14
2.26386602e-14
2.09541515e-14
1.94086607e-14
1.79999988e-14
1.67212606e-14
1.55589174e-14
1.44989517e-14
1.35276736e-14
1.26325733e-14
1.18028439e-14
1.10296529e-14
1.03064117e-14
9.62938421e-15
8.99934638e-15
8.42576386e-15
7.93715313e-15
7.60577941e-15
3.52454195e-14
3.90109036e-14
2.87856362e-14
1.89229371e-14
1.20354326e-14
2.07737412e-14
7.198808e-14
1.38710345e-13
1.85360182e-13
2.00188734e-13
1.88855856e-13
1.69121546e-13
1.66052388e-13
1.97657933e-13
2.59818296e-13
3.32220498e-13
3.93486426e-13
4.31729874e-13
4.48193322e-13
4.58105836e-13
4.87944924e-13
5.63533565e-13
7.00431068e-13
9.02063776e-13
1.16044686e-12
1.46217066e-12
1.78624988e-12
2.11964969e-12
2.46461115e-12
2.85571998e-12
3.34796997e-12
4.01067466e-12
4.90520099e-12
6.07314121e-12
7.52107279e-12
9.21843763e-12
1.11168733e-11
1.31741625e-11
1.54056412e-11
1.78779561e-11
2.07346471e-11
2.41295502e-11
2.8234391e-11
3.31527275e-11
3.89777543e-11
4.57219155e-11
5.33958224e-11
6.20475454e-11
7.18131948e-11
8.29438008e-11
9.57906116e-11
1.10767774e-10
1.28289622e-10
1.4872647e-10
1.72381432e-10
1.9953547e-10
2.30521522e-10
2.65830632e-10
3.0615658e-10
3.52420678e-10
4.05716618e-10
4.67345793e-10
5.38751232e-10
6.21612908e-10
7.17675461e-10
8.28791051e-10
9.57260149e-10
1.10540639e-09
1.27589667e-09
1.47139367e-09
1.69487348e-09
1.94956968e-09
2.23916922e-09
2.56878616e-09
2.94360721e-09
3.37221889e-09
3.86168514e-09
4.42307891e-09
5.06753556e-09
5.80811618e-09
6.65792747e-09
7.63188973e-09
8.74730789e-09
1.00238096e-08
1.14851031e-08
1.3160043e-08
1.50846418e-08
1.73009935e-08
1.98583143e-08
2.28156233e-08
2.62409553e-08
3.02139166e-08
3.48266133e-08
4.01868694e-08
4.64222834e-08
5.36846904e-08
6.21566009e-08
7.20617927e-08
8.36763042e-08
9.73489837e-08
1.13502922e-07
1.32659384e-07
1.55463603e-07
1.82717797e-07
2.15386121e-07
2.54708621e-07
3.0226716e-07
3.60103703e-07
4.30943094e-07
5.18335882e-07
6.26939041e-07
7.63038673e-07
9.35192352e-07
1.15516478e-06
1.43912529e-06
1.80921984e-06
2.29626194e-06
2.94271361e-06
3.80535231e-06
4.95550841e-06
6.47492222e-06
8.4340876e-06
1.08451093e-05
1.35943192e-05
1.64109354e-05
1.89109278e-05
2.07353945e-05
2.1667366e-05
2.16910831e-05
2.09485161e-05
1.96535336e-05
1.80178257e-05
1.62310773e-05
1.44326871e-05
1.27052147e-05
1.11029037e-05
9.64424668e-06
8.33647258e-06
7.17963823e-06
6.17335823e-06
5.26346592e-06
4.37324467e-06
3.44525244e-06
2.52539052e-06
1.77062279e-06
1.23524596e-06
8.68598216e-07
6.15811466e-07
4.42999021e-07
3.18417215e-07
2.28712318e-07
1.65069998e-07
1.19636816e-07
8.70251181e-08
6.35080435e-08
4.64833801e-08
3.41158018e-08
2.51026804e-08
1.85148882e-08
1.3686945e-08
1.0139908e-08
7.52781616e-09
5.59993898e-09
4.1740143e-09
3.11718288e-09
2.3323475e-09
1.74837521e-09
1.31303571e-09
9.87895211e-10
7.44613646e-10
5.62252337e-10
4.25312649e-10
3.22305477e-10
2.44707638e-10
1.86126278e-10
1.4178287e-10
1.08191055e-10
8.27014235e-11
6.33267392e-11
4.85753038e-11
3.73253154e-11
2.87315259e-11
2.21560316e-11
1.71169385e-11
1.32496429e-11
1.02773893e-11
7.98968325e-12
6.22682717e-12
4.86811576e-12
3.82233477e-12
3.02090701e-12
2.40928846e-12
1.93902859e-12
1.57557264e-12
1.29271972e-12
1.07057796e-12
8.94731413e-13
7.55077988e-13
6.44180973e-13
5.55478184e-13
4.84166989e-13
4.26505454e-13
3.80158924e-13
3.42951458e-13
3.12969749e-13
2.88669738e-13
2.68943346e-13
2.53020625e-13
2.39984456e-13
2.29121384e-13
2.19837001e-13
2.11822395e-13
2.04719848e-13
1.98288196e-13
1.92242403e-13
1.86393749e-13
1.8063292e-13
1.74737106e-13
1.68862211e-13
1.63108244e-13
1.57265653e-13
1.5137418e-13
1.45465599e-13
1.39534968e-13
1.33579859e-13
1.2761432e-13
1.21659891e-13
1.15739532e-13
1.09882505e-13
1.04132939e-13
9.85432894e-14
9.31613783e-14
8.80232423e-14
8.31493101e-14
7.85444628e-14
7.4203755e-14
7.01253441e-14
6.63041992e-14
6.25848324e-14
5.90354727e-14
5.56464218e-14
5.23985828e-14
4.92783569e-14
4.62782126e-14
4.33943235e-14
4.06246615e-14
3.79680159e-14
3.54237096e-14
3.29917511e-14
3.06732283e-14
2.84707769e-14
2.63888827e-14
2.44336837e-14
2.2611994e-14
2.09293596e-14
1.93854291e-14
1.79785298e-14
1.67010893e-14
1.55398558e-14
1.44808995e-14
1.35105678e-14
1.2616371e-14
1.17875109e-14
1.10151563e-14
1.02927177e-14
9.61645932e-15
8.98715554e-15
8.41426364e-15
7.92626829e-15
7.59533417e-15
2.94296893e-12
2.11131113e-12
1.131979e-12
5.70358693e-13
3.09464461e-13
1.48776761e-12
5.8659558e-12
9.25603856e-12
9.84791237e-12
8.49581907e-12
6.49367147e-12
5.02024199e-12
5.12278796e-12
6.83116615e-12
9.05394283e-12
1.06395762e-11
1.10963691e-11
1.05975218e-11
9.64431368e-12
9.00044751e-12
9.38974392e-12
1.11094421e-11
1.39981112e-11
1.76358211e-11
2.15756705e-11
2.53776051e-11
2.86781751e-11
3.13992774e-11
3.39734944e-11
3.72488772e-11
4.21211655e-11
4.92725955e-11
5.89374348e-11
7.08697257e-11
8.43687744e-11
9.84750879e-11
1.12383564e-10
1.25864578e-10
1.39513275e-10
1.54455944e-10
1.72092177e-10
1.93434893e-10
2.19086508e-10
2.48792903e-10
2.82136823e-10
3.18320818e-10
3.56847042e-10
3.978507e-10
4.42254883e-10
4.91582982e-10
5.47531199e-10
6.11534036e-10
6.84421061e-10
7.66343705e-10
8.56984925e-10
9.56104507e-10
1.06410312e-09
1.1823395e-09
1.31301555e-09
1.45885568e-09
1.6226793e-09
1.80758365e-09
2.01666672e-09
2.25319689e-09
2.51999395e-09
2.81991638e-09
3.15653958e-09
3.53282195e-09
3.95200359e-09
4.41679227e-09
4.93040527e-09
5.4969168e-09
6.1220613e-09
6.81494679e-09
7.58537638e-09
8.44891493e-09
9.41863078e-09
1.05129814e-08
1.17492609e-08
1.31459046e-08
1.47215125e-08
1.64956411e-08
1.84910458e-08
2.07358631e-08
2.32645175e-08
2.61213889e-08
2.93600588e-08
3.30428183e-08
3.72412948e-08
4.20387102e-08
4.75300378e-08
5.38245502e-08
6.1047141e-08
6.93437533e-08
7.88867889e-08
8.98802854e-08
1.02569437e-07
1.17255112e-07
1.34309477e-07
1.54200119e-07
1.77482403e-07
2.04840752e-07
2.37117728e-07
2.7534628e-07
3.20744794e-07
3.74875894e-07
4.39750642e-07
5.17973119e-07
6.12952328e-07
7.29090578e-07
8.72039195e-07
1.04937828e-06
1.27133556e-06
1.55174078e-06
1.90915307e-06
2.36815384e-06
2.96220566e-06
3.73564437e-06
4.74431785e-06
6.05185691e-06
7.72285749e-06
9.79509649e-06
1.22328548e-05
1.48725511e-05
1.74333154e-05
1.95729705e-05
2.10173014e-05
2.16154077e-05
2.13915373e-05
2.04961073e-05
1.91286747e-05
1.74731826e-05
1.57057533e-05
1.39490449e-05
1.22659966e-05
1.07090257e-05
9.28836596e-06
8.01436992e-06
6.90544578e-06
5.92520647e-06
5.01257042e-06
4.10455703e-06
3.17711468e-06
2.31324857e-06
1.63605316e-06
1.15481896e-06
8.19345245e-07
5.84618912e-07
4.2083655e-07
3.03702467e-07
2.19374779e-07
1.58940467e-07
1.15530141e-07
8.4235974e-08
6.15945767e-08
4.51610112e-08
3.31963629e-08
2.44596365e-08
1.80629478e-08
1.33679365e-08
9.91384674e-09
7.36704314e-09
5.48521625e-09
4.0918957e-09
3.05822916e-09
2.28990574e-09
1.71773914e-09
1.29086483e-09
9.71810863e-10
7.32917006e-10
5.53726584e-10
4.19083923e-10
3.17745379e-10
2.41369306e-10
1.83662179e-10
1.39965781e-10
1.0684961e-10
8.17090243e-11
6.25911626e-11
4.80290927e-11
3.69190229e-11
2.84288769e-11
2.19303556e-11
1.69485009e-11
1.3123788e-11
1.01833361e-11
7.91957725e-12
6.17485068e-12
4.82981228e-12
3.79440425e-12
3.00129759e-12
2.39554123e-12
1.92950298e-12
1.56890813e-12
1.28803474e-12
1.06741461e-12
8.92853358e-13
7.5411034e-13
6.43779001e-13
5.55471886e-13
4.84555437e-13
4.27277153e-13
3.81155104e-13
3.44048089e-13
3.14133633e-13
2.89912709e-13
2.70265475e-13
2.54356467e-13
2.41281878e-13
2.30370671e-13
2.21056564e-13
2.1301556e-13
2.05863994e-13
1.99368696e-13
1.93256896e-13
1.87353783e-13
1.81545795e-13
1.75643915e-13
1.69718179e-13
1.63839339e-13
1.57926607e-13
1.51972751e-13
1.45998983e-13
1.40006339e-13
1.33996576e-13
1.27983609e-13
1.21985778e-13
1.16025069e-13
1.10132336e-13
1.04351532e-13
9.87332529e-14
9.33236219e-14
8.81579608e-14
8.3256712e-14
7.86251195e-14
7.42587424e-14
7.01572167e-14
6.63315952e-14
6.25807554e-14
5.90143188e-14
5.56136987e-14
5.23567249e-14
4.92294145e-14
4.62242566e-14
4.33372913e-14
4.05662215e-14
3.79095297e-14
3.53662526e-14
3.29361523e-14
3.06201082e-14
2.84205726e-14
2.63418559e-14
2.43899214e-14
2.25714058e-14
2.08916263e-14
1.93501592e-14
1.79459039e-14
1.66704199e-14
1.55108906e-14
1.44534863e-14
1.34846082e-14
1.25917949e-14
1.17642612e-14
1.09931813e-14
1.02719663e-14
9.59687778e-15
8.96868793e-15
8.3968425e-15
7.90977896e-15
7.57950969e-15
3.14754381e-10
1.10456826e-10
3.53651733e-11
1.27842731e-11
6.79927724e-12
1.06778686e-10
3.83985587e-10
4.59739719e-10
3.68672269e-10
2.42676838e-10
1.44583178e-10
1.01984641e-10
1.30425632e-10
1.95932569e-10
2.43630729e-10
2.48976458e-10
2.21113785e-10
1.80434462e-10
1.43751718e-10
1.28307467e-10
1.42176124e-10
1.79557948e-10
2.27801953e-10
2.75971692e-10
3.17160552e-10
3.46431194e-10
3.6191116e-10
3.676011e-10
3.75596591e-10
3.98558673e-10
4.44427339e-10
5.14453867e-10
6.03475133e-10
7.02143828e-10
7.99070097e-10
8.84046224e-10
9.53013072e-10
1.01064744e-09
1.06829179e-09
1.13819783e-09
1.22938507e-09
1.34417648e-09
1.47978948e-09
1.62804259e-09
1.78223238e-09
1.93609872e-09
2.08794652e-09
2.24182065e-09
2.40602502e-09
2.58970626e-09
2.79949631e-09
3.03774505e-09
3.30219172e-09
3.58737543e-09
3.88736256e-09
4.19945314e-09
4.52605918e-09
4.87403317e-09
5.25232796e-09
5.66936337e-09
6.13159768e-09
6.64569819e-09
7.21745105e-09
7.8506337e-09
8.54860585e-09
9.31344164e-09
1.01480754e-08
1.10537647e-08
1.20316864e-08
1.30812259e-08
1.42043576e-08
1.54074692e-08
1.67031316e-08
1.81121007e-08
1.9656456e-08
2.13671353e-08
2.32700517e-08
2.53951473e-08
2.77676948e-08
3.04119898e-08
3.33511094e-08
3.66095153e-08
4.0217927e-08
4.42196081e-08
4.86695023e-08
5.36420406e-08
5.92218714e-08
6.55045882e-08
7.25981189e-08
8.06238761e-08
8.97183593e-08
1.00036338e-07
1.11753234e-07
1.25074383e-07
1.40242282e-07
1.57543603e-07
1.77322846e-07
2.00005029e-07
2.26118508e-07
2.56306087e-07
2.91336127e-07
3.32146645e-07
3.79882251e-07
4.35921574e-07
5.01845203e-07
5.79684959e-07
6.72124858e-07
7.82615867e-07
9.1557692e-07
1.07661182e-06
1.27268976e-06
1.51318511e-06
1.81055423e-06
2.18125187e-06
2.64657732e-06
3.23322473e-06
3.97669054e-06
4.9210045e-06
6.11610231e-06
7.60812401e-06
9.43312466e-06
1.15828778e-05
1.39659686e-05
1.63712212e-05
1.85380235e-05
2.01948771e-05
2.11775638e-05
2.13899129e-05
2.08913347e-05
1.98348946e-05
1.83991305e-05
1.67291152e-05
1.49948751e-05
1.32973544e-05
1.16704359e-05
1.017361e-05
8.80199155e-06
7.60573387e-06
6.54513954e-06
5.5806186e-06
4.65781146e-06
3.73569124e-06
2.83928208e-06
2.06719147e-06
1.48162328e-06
1.05990092e-06
7.59700836e-07
5.46269139e-07
3.94878085e-07
2.86263392e-07
2.07839551e-07
1.51231636e-07
1.1031702e-07
8.06747941e-08
5.91426251e-08
4.34612734e-08
3.20110826e-08
2.36287534e-08
1.74778598e-08
1.29542392e-08
9.62023617e-09
7.15793883e-09
5.33581537e-09
3.98482859e-09
2.98128075e-09
2.23445297e-09
1.67767319e-09
1.26184383e-09
9.50739302e-10
7.17581533e-10
5.42540097e-10
4.10905459e-10
3.11753525e-10
2.36982101e-10
1.80416216e-10
1.37574146e-10
1.05082979e-10
8.04014236e-11
6.162152e-11
4.73087709e-11
3.63829831e-11
2.80294128e-11
2.16324332e-11
1.67261535e-11
1.29576219e-11
1.0059078e-11
7.82695882e-12
6.10631251e-12
4.77942148e-12
3.75764374e-12
2.97532113e-12
2.37745158e-12
1.91708036e-12
1.56024494e-12
1.28185692e-12
1.06319214e-12
8.90418716e-13
7.52961545e-13
6.4332924e-13
5.55475181e-13
4.85058616e-13
4.28348104e-13
3.82549301e-13
3.45538141e-13
3.15677348e-13
2.91559854e-13
2.72044242e-13
2.56151087e-13
2.43005065e-13
2.32019261e-13
2.2267034e-13
2.14600542e-13
2.07377876e-13
2.00788598e-13
1.94586219e-13
1.88613895e-13
1.8274369e-13
1.76789327e-13
1.70784079e-13
1.64787711e-13
1.58788143e-13
1.52754983e-13
1.46694272e-13
1.40617985e-13
1.34535924e-13
1.28461749e-13
1.22407475e-13
1.16392982e-13
1.10452404e-13
1.04630377e-13
9.89746907e-14
9.35288539e-14
8.83273656e-14
8.33908109e-14
7.87248215e-14
7.43253954e-14
7.01933653e-14
6.63664907e-14
6.25700029e-14
5.89829072e-14
5.55678143e-14
5.22991154e-14
4.91626698e-14
4.61510872e-14
4.32602378e-14
4.04874646e-14
3.78308453e-14
3.52890422e-14
3.28614953e-14
3.05488116e-14
2.83532034e-14
2.62787533e-14
2.43311969e-14
2.25169443e-14
2.08410635e-14
1.93031882e-14
1.79021879e-14
1.66293442e-14
1.54721287e-14
1.44168301e-14
1.34499197e-14
1.25589725e-14
1.17332215e-14
1.09638513e-14
1.02442758e-14
9.57075233e-15
8.94404957e-15
8.37359962e-15
7.88777823e-15
7.55839326e-15
3.24917283e-08
4.91073855e-09
8.36881312e-10
2.04575683e-10
1.24803632e-10
6.19221832e-09
1.81662839e-08
1.53469914e-08
8.77670406e-09
4.22804022e-09
1.90909582e-09
1.44778407e-09
2.5621681e-09
3.82048588e-09
4.11316666e-09
3.51888269e-09
2.62182191e-09
1.83271709e-09
1.31173752e-09
1.21688737e-09
1.50070434e-09
1.95002395e-09
2.36895526e-09
2.67319326e-09
2.83970461e-09
2.86246755e-09
2.76024991e-09
2.61588446e-09
2.56160016e-09
2.67466781e-09
2.96274856e-09
3.37964467e-09
3.85011278e-09
4.2948762e-09
4.64535045e-09
4.86197385e-09
4.96275338e-09
5.01678013e-09
5.106818e-09
5.28982856e-09
5.58321467e-09
5.9659715e-09
6.39831214e-09
6.82930523e-09
7.23271733e-09
7.59210525e-09
7.91695077e-09
8.24028549e-09
8.60237871e-09
9.03283137e-09
9.54130844e-09
1.01181451e-08
1.07395749e-08
1.13774981e-08
1.20113456e-08
1.26404515e-08
1.32824376e-08
1.39643902e-08
1.47121252e-08
1.55422973e-08
1.64619914e-08
1.74823707e-08
1.86090597e-08
1.98403166e-08
2.11746658e-08
2.26086119e-08
2.41402677e-08
2.57632788e-08
2.74716219e-08
2.92563258e-08
3.11191965e-08
3.30754482e-08
3.51552793e-08
3.74022005e-08
3.98585366e-08
4.25761757e-08
4.55959584e-08
4.89551645e-08
5.26816586e-08
5.67995245e-08
6.13298587e-08
6.62987432e-08
7.17460167e-08
7.77356329e-08
8.43507736e-08
9.17029658e-08
9.99116784e-08
1.09107299e-07
1.19433627e-07
1.31048828e-07
1.44129386e-07
1.58873524e-07
1.75506286e-07
1.94290633e-07
2.15538811e-07
2.39622739e-07
2.66985765e-07
2.98184029e-07
3.33895797e-07
3.74935983e-07
4.22287199e-07
4.77132853e-07
5.40906964e-07
6.15308166e-07
7.02205688e-07
8.04086717e-07
9.24286123e-07
1.0670426e-06
1.23767655e-06
1.44280144e-06
1.69034397e-06
1.99116665e-06
2.35941305e-06
2.81332313e-06
3.37559853e-06
4.07281311e-06
4.94011954e-06
6.01767205e-06
7.34531779e-06
8.94763633e-06
1.0835454e-05
1.29659444e-05
1.52163105e-05
1.73541913e-05
1.91669786e-05
2.04435144e-05
2.11048687e-05
2.1059467e-05
2.03862995e-05
1.92358996e-05
1.77691009e-05
1.60949841e-05
1.43960125e-05
1.27521199e-05
1.11679628e-05
9.72329374e-06
8.42390265e-06
7.27751157e-06
6.24311647e-06
5.28326638e-06
4.35361153e-06
3.439664e-06
2.59575361e-06
1.90030937e-06
1.3751432e-06
9.92177945e-07
7.16073638e-07
5.1774595e-07
3.75722851e-07
2.73322268e-07
1.99120602e-07
1.45327337e-07
1.06288692e-07
7.79055632e-08
5.72274368e-08
4.21285619e-08
3.1078562e-08
2.29732635e-08
1.70151668e-08
1.26263808e-08
9.38709645e-09
6.99160756e-09
5.21678223e-09
3.89939645e-09
2.91979574e-09
2.19008632e-09
1.64557824e-09
1.23856991e-09
9.33822472e-10
7.05257306e-10
5.33541524e-10
4.04320518e-10
3.0692451e-10
2.33447026e-10
1.7779848e-10
1.35642545e-10
1.03655101e-10
7.93438752e-11
6.08368286e-11
4.67255441e-11
3.59487934e-11
2.77057107e-11
2.13908604e-11
1.65457727e-11
1.28228752e-11
9.95841906e-12
7.75191422e-12
6.0506805e-12
4.73856063e-12
3.72805645e-12
2.95450687e-12
2.36284635e-12
1.90692361e-12
1.55321778e-12
1.27701495e-12
1.05993143e-12
8.8843418e-13
7.51946007e-13
6.42984283e-13
5.55616022e-13
4.85580771e-13
4.29210747e-13
3.83640488e-13
3.46772056e-13
3.17004917e-13
2.92951843e-13
2.73488086e-13
2.57597349e-13
2.44417692e-13
2.33387122e-13
2.23996937e-13
2.15880365e-13
2.08598763e-13
2.01941498e-13
1.9567056e-13
1.89633538e-13
1.83699287e-13
1.77689255e-13
1.716222e-13
1.65548018e-13
1.5947622e-13
1.53374364e-13
1.47244947e-13
1.41104368e-13
1.34964673e-13
1.28838682e-13
1.22737434e-13
1.16680507e-13
1.10702441e-13
1.04847164e-13
9.91609137e-14
9.36860097e-14
8.84562065e-14
8.34918195e-14
7.87986741e-14
7.43731362e-14
7.02159802e-14
6.63940312e-14
6.25548576e-14
5.89534733e-14
5.55274241e-14
5.22495512e-14
4.91059435e-14
4.60893829e-14
4.31956052e-14
4.04216549e-14
3.77652781e-14
3.52248333e-14
3.27995028e-14
3.0489676e-14
2.82973729e-14
2.62264923e-14
2.42825865e-14
2.24718858e-14
2.07992839e-14
1.92644328e-14
1.7866062e-14
1.65954172e-14
1.54401318e-14
1.43865864e-14
1.34213108e-14
1.25319128e-14
1.17076407e-14
1.09396858e-14
1.02214649e-14
9.54923525e-15
8.9237637e-15
8.35446828e-15
7.86967293e-15
7.54101893e-15
3.76782422e-23
3.26303469e-23
2.41470972e-23
1.73576474e-23
1.24012775e-23
8.95297093e-24
6.48801403e-24
4.74517397e-24
3.58779684e-24
2.79228498e-24
2.19575382e-24
1.76438457e-24
1.43393904e-24
1.19679786e-24
1.00739944e-24
8.69373663e-25
7.67744691e-25
6.8104973e-25
6.08940729e-25
5.49442258e-25
5.02087878e-25
4.62156048e-25
4.27224385e-25
3.99038838e-25
3.75247272e-25
3.5652958e-25
3.38918295e-25
3.24539267e-25
3.11421535e-25
2.99546589e-25
3.18643727e-25
2.61876776e-24
1.69017163e-22
1.16618861e-20
8.13484571e-19
5.74821366e-17
4.14451935e-15
3.08250875e-13
2.44545013e-11
2.1152509e-09
1.4383801e-23
1.84850007e-23
1.75529442e-23
1.5193846e-23
1.26406184e-23
1.02541423e-23
8.23613188e-24
6.6522085e-24
5.39977324e-24
4.33283702e-24
3.50954367e-24
2.85353843e-24
2.360863e-24
1.94299633e-24
1.62346453e-24
1.3799966e-24
1.19436014e-24
1.03159071e-24
9.01454315e-25
7.99564492e-25
7.13068254e-25
6.39452723e-25
5.7861142e-25
5.34123516e-25
4.88461054e-25
4.53188267e-25
4.23977099e-25
3.98555372e-25
3.75550887e-25
3.57077756e-25
3.53701221e-25
1.22988605e-24
5.76223471e-23
3.54960686e-21
2.16219066e-19
1.29780799e-17
7.6662904e-16
4.53360618e-14
2.80599738e-12
1.74490121e-10
2.26367393e-24
8.18651816e-24
1.03615508e-23
1.06922034e-23
1.02047622e-23
9.33410332e-24
8.24854562e-24
7.20417995e-24
6.24043456e-24
5.36776456e-24
4.57787133e-24
3.88402314e-24
3.31426845e-24
2.82466838e-24
2.4256554e-24
2.07552535e-24
1.78559275e-24
1.54566905e-24
1.34265628e-24
1.17822698e-24
1.03680131e-24
9.25109047e-25
8.21797004e-25
7.35304183e-25
6.65524409e-25
6.0563637e-25
5.55690007e-25
5.10955094e-25
4.72899261e-25
4.40309511e-25
4.14490326e-25
5.06393247e-25
8.62881315e-24
5.03526614e-22
2.97173283e-20
1.7172453e-18
9.6841762e-17
5.34143786e-15
2.83608545e-13
1.34711454e-11
5.11480096e-25
2.20060429e-24
5.93943919e-24
7.65914594e-24
8.23639772e-24
8.0941713e-24
7.61570885e-24
6.97207003e-24
6.29092686e-24
5.5658538e-24
4.91692004e-24
4.30467386e-24
3.75280894e-24
3.26151417e-24
2.84006708e-24
2.46007624e-24
2.13874941e-24
1.8718453e-24
1.63758194e-24
1.43351235e-24
1.2597493e-24
1.11301312e-24
9.82167973e-25