/*--------------------------------*- C++ -*----------------------------------*\
  =========                 |
  \\      /  F ield         | OpenFOAM: The Open Source CFD Toolbox
   \\    /   O peration     | Website:  https://openfoam.org
    \\  /    A nd           | Version:  6
     \\/     M anipulation  |
\*---------------------------------------------------------------------------*/
FoamFile
{
    version     2.0;
    format      ascii;
    class       volScalarField;
    location    "25000";
    object      HCCOH;
}
// * * * * * * * * * * * * * * * * * * * * * * * * * * * * * * * * * * * * * //

dimensions      [0 0 0 0 0 0 0];

internalField   nonuniform List<scalar> 
44870
(
3.49617182e-102
4.31881857e-100
5.30880276e-98
6.59938835e-96
8.3032076e-94
1.05800405e-91
1.36621348e-89
1.7890879e-87
2.37766736e-85
3.20902492e-83
4.40138858e-81
6.13825547e-79
8.70842298e-77
1.25727458e-74
1.84755214e-72
2.76370433e-70
4.20800837e-68
6.52096647e-66
1.0281571e-63
1.64899434e-61
2.68893872e-59
4.45659775e-57
7.50315189e-55
1.28274395e-52
2.22548137e-50
3.91676228e-48
6.98747423e-46
1.26306791e-43
2.31094901e-41
4.27752936e-39
7.99673038e-37
1.50852907e-34
2.8630294e-32
5.4551941e-30
1.03707971e-27
1.9551704e-25
3.60074723e-23
6.35059988e-21
1.01022719e-18
1.36098351e-16
2.52441589e-102
3.09942653e-100
3.79109484e-98
4.70199376e-96
5.92626983e-94
7.60488869e-92
9.95633817e-90
1.33220891e-87
1.82474492e-85
2.56143831e-83
3.68784897e-81
5.44732629e-79
8.25392565e-77
1.28228148e-74
2.04039438e-72
3.32246536e-70
5.52779045e-68
9.38688665e-66
1.62417066e-63
2.86082674e-61
5.12124881e-59
9.31229381e-57
1.717175e-54
3.21114054e-52
6.07893457e-50
1.16579164e-47
2.26019075e-45
4.43649175e-43
8.79404792e-41
1.76463321e-38
3.57211312e-36
7.32042262e-34
1.51136791e-31
3.15918196e-29
6.63488685e-27
1.40741931e-24
2.97286378e-22
6.26848273e-20
1.23597451e-17
2.31966643e-15
1.08402463e-102
1.29675342e-100
1.56145075e-98
1.94278724e-96
2.5182761e-94
3.41967749e-92
4.88335843e-90
7.34058969e-88
1.15922266e-85
1.91648572e-83
3.29959878e-81
5.8820984e-79
1.07950968e-76
2.02921129e-74
3.88798884e-72
7.57369341e-70
1.49376306e-67
2.97988273e-65
5.99497969e-63
1.21621609e-60
2.48317753e-58
5.10623444e-56
1.05526831e-53
2.19606609e-51
4.58887301e-49
9.66106092e-47
2.04097976e-44
4.34824136e-42
9.28930485e-40
2.00445298e-37
4.33333519e-35
9.48038753e-33
2.07517427e-30
4.60981742e-28
1.02373851e-25
2.31396959e-23
5.22228035e-21
1.20921111e-18
2.68741776e-16
6.13763305e-14
2.25337829e-103
2.69417961e-101
3.65145743e-99
5.73437046e-97
1.02731191e-94
2.03813524e-92
4.33795214e-90
9.64903932e-88
2.2008775e-85
5.08392215e-83
1.17982291e-80
2.73733592e-78
6.32936421e-76
1.45666118e-73
3.33293445e-71
7.5831787e-69
1.71526154e-66
3.86044972e-64
8.64426181e-62
1.92750007e-59
4.28261252e-57
9.48884581e-55
2.09706123e-52
4.62843723e-50
1.01992748e-47
2.24774734e-45
4.9504325e-43
1.09171393e-40
2.40738891e-38
5.32420471e-36
1.17777317e-33
2.61701271e-31
5.81623894e-29
1.30048178e-26
2.90821873e-24
6.53955107e-22
1.46668017e-19
3.29421664e-17
7.15987555e-15
1.51362868e-12
2.89957924e-104
8.95108228e-102
3.01173242e-99
1.0082013e-96
3.25594128e-94
1.00841969e-91
2.9988754e-89
8.58941068e-87
2.37772119e-84
6.38314046e-82
1.66717352e-79
4.24905081e-77
1.05961606e-74
2.59189674e-72
6.23259775e-70
1.47627848e-67
3.45060472e-65
7.97156687e-63
1.82277094e-60
4.13060584e-58
9.28689647e-56
2.07367372e-53
4.60257906e-51
1.01623942e-48
2.23367343e-46
4.89059677e-44
1.06721849e-41
2.32182433e-39
5.03917722e-37
1.09126438e-34
2.35911802e-32
5.09211493e-30
1.09783834e-27
2.36440464e-25
5.08828603e-23
1.09421141e-20
2.35189741e-18
5.05234553e-16
1.08484067e-13
2.34071087e-11
4.34391429e-15
1.80304226e-14
4.66143009e-14
9.9162323e-14
1.8862877e-13
3.32516179e-13
5.55050798e-13
8.92704976e-13
1.39884585e-12
2.15634202e-12
3.28025844e-12
4.93996971e-12
7.35444051e-12
1.08309261e-11
1.57608146e-11
2.26538468e-11
3.21790261e-11
4.51480247e-11
6.26682048e-11
8.60043566e-11
1.16850522e-10
1.57187078e-10
2.09493253e-10
2.76815927e-10
3.62836733e-10
4.72166493e-10
6.09866084e-10
7.83335876e-10
9.99373779e-10
1.26892539e-09
1.60255856e-09
2.01421102e-09
2.52030016e-09
3.13801873e-09
3.89106211e-09
4.80171393e-09
5.90179683e-09
7.22092429e-09
8.79955787e-09
1.06779773e-08
1.29072791e-08
1.5542428e-08
1.86462922e-08
2.22828092e-08
2.65340831e-08
3.14702628e-08
3.71690522e-08
4.37109886e-08
5.117962e-08
5.96626123e-08
6.92496748e-08
8.00340557e-08
9.21070271e-08
1.0555959e-07
1.20473709e-07
1.36923449e-07
1.54965463e-07
1.74640433e-07
1.95968364e-07
2.18951429e-07
2.43575679e-07
2.69812137e-07
2.9762555e-07
3.26971599e-07
3.57817453e-07
3.90129227e-07
4.23900175e-07
4.59125604e-07
4.9582546e-07
5.34005358e-07
5.73669667e-07
6.14795415e-07
6.57323306e-07
7.01190137e-07
7.46262326e-07
7.92482295e-07
8.39639625e-07
8.87665201e-07
9.36456059e-07
9.8593889e-07
1.03605341e-06
1.08675637e-06
1.1380256e-06
1.18983937e-06
1.24217746e-06
1.29500361e-06
1.34828933e-06
1.40197786e-06
1.45601869e-06
1.51036735e-06
1.56497974e-06
1.61982823e-06
1.67488697e-06
1.73014028e-06
1.78557929e-06
1.84119965e-06
1.89699725e-06
1.95296961e-06
2.00911376e-06
2.0654342e-06
2.12191986e-06
2.17857618e-06
2.23540348e-06
2.29241048e-06
2.34958596e-06
2.40692897e-06
2.46447914e-06
2.52236226e-06
2.58090502e-06
2.64064863e-06
2.70242465e-06
2.76747721e-06
2.8376924e-06
2.91591587e-06
3.00624842e-06
3.11438129e-06
3.24824579e-06
3.41873127e-06
3.64033448e-06
3.93167589e-06
4.31608947e-06
4.8204993e-06
5.47071184e-06
6.28171049e-06
7.2452908e-06
8.32194704e-06
9.4449843e-06
1.05362177e-05
1.15240382e-05
1.23542903e-05
1.29923097e-05
1.34197059e-05
1.36287854e-05
1.36178879e-05
1.33882858e-05
1.29416471e-05
1.22793879e-05
1.14026152e-05
1.03137152e-05
9.01870639e-06
7.54376557e-06
5.96448022e-06
4.41690406e-06
3.09304086e-06
2.11889393e-06
1.46027569e-06
1.01798878e-06
7.16682619e-07
5.10405336e-07
3.67425027e-07
2.66211286e-07
1.93668064e-07
1.41356851e-07
1.03336124e-07
7.55958054e-08
5.54889308e-08
4.09524733e-08
3.04293553e-08
2.2783444e-08
1.71997761e-08
1.30976741e-08
1.00639967e-08
7.80448158e-09
6.10855608e-09
4.82370655e-09
3.83665504e-09
3.06772099e-09
2.46315535e-09
1.98402349e-09
1.60194903e-09
1.29596451e-09
1.0503029e-09
8.52894003e-10
6.943438e-10
5.67059989e-10
4.64935483e-10
3.83246527e-10
3.18073862e-10
2.66190505e-10
2.2496122e-10
1.92239968e-10
1.66286779e-10
1.4570092e-10
1.29366191e-10
1.16403638e-10
1.06129584e-10
9.80204471e-11
9.1683796e-11
8.68313568e-11
8.32536424e-11
8.0795503e-11
7.93531452e-11
7.88466239e-11
7.92185919e-11
8.0413614e-11
8.23833674e-11
8.50890233e-11
8.84713939e-11
9.24634762e-11
9.70045516e-11
1.02039062e-10
1.07529428e-10
1.13392828e-10
1.1953825e-10
1.25937697e-10
1.32511927e-10
1.39260077e-10
1.4604174e-10
1.52778644e-10
1.59487219e-10
1.66110427e-10
1.72625291e-10
1.78936958e-10
1.85055067e-10
1.90974466e-10
1.96700425e-10
2.02193272e-10
2.07365637e-10
2.12388094e-10
2.17270992e-10
2.21977655e-10
2.26503823e-10
2.30836892e-10
2.34983144e-10
2.38928844e-10
2.42661321e-10
2.46170973e-10
2.49461003e-10
2.52553128e-10
2.55475877e-10
2.58258151e-10
2.60926509e-10
2.63501095e-10
2.65992298e-10
2.6840144e-10
2.7072583e-10
2.72969688e-10
2.75135866e-10
2.77120196e-10
2.78951536e-10
2.80635752e-10
2.82167682e-10
2.83543842e-10
2.8476513e-10
2.85836094e-10
2.86763789e-10
2.875569e-10
2.88225108e-10
2.88778547e-10
2.89227254e-10
2.89580565e-10
2.89846437e-10
2.90030776e-10
2.90136959e-10
2.9016604e-10
2.90118291e-10
2.8998702e-10
2.89776737e-10
2.89489545e-10
2.89130997e-10
2.88709558e-10
2.88235442e-10
2.87719383e-10
2.87171723e-10
2.86602174e-10
2.86020586e-10
2.85439393e-10
2.84879205e-10
2.84381151e-10
2.84033739e-10
8.96546272e-14
3.19345155e-13
7.17261205e-13
1.37480056e-12
2.41174819e-12
3.97672916e-12
6.28705888e-12
9.71731248e-12
1.4840334e-11
2.25383319e-11
3.39809813e-11
5.07905637e-11
7.49341917e-11
1.09038353e-10
1.56280789e-10
2.20624858e-10
3.07042028e-10
4.21270615e-10
5.70664538e-10
7.63010752e-10
1.00801653e-09
1.31626656e-09
1.69971951e-09
2.17283281e-09
2.7497814e-09
3.44976064e-09
4.29020826e-09
5.29533044e-09
6.48584264e-09
7.88967391e-09
9.53155655e-09
1.14403105e-08
1.36428105e-08
1.61677029e-08
1.90446424e-08
2.23025753e-08
2.59752977e-08
3.00928565e-08
3.46937732e-08
3.98095383e-08
4.54811208e-08
5.17398587e-08
5.8623422e-08
6.61534356e-08
7.43789862e-08
8.3319933e-08
9.30065619e-08
1.03471485e-07
1.14749525e-07
1.26877971e-07
1.39895518e-07
1.53843589e-07
1.68764832e-07
1.84705095e-07
2.01711523e-07
2.19833663e-07
2.39119099e-07
2.59612921e-07
2.81352703e-07
3.04368047e-07
3.28677772e-07
3.54292291e-07
3.81214513e-07
4.09445074e-07
4.38988277e-07
4.6984724e-07
5.02043671e-07
5.35599074e-07
5.70546449e-07
6.06905106e-07
6.44686765e-07
6.83875644e-07
7.24424091e-07
7.66271439e-07
8.09304763e-07
8.53462085e-07
8.98563775e-07
9.44549402e-07
9.91332593e-07
1.03885707e-06
1.08707154e-06
1.13594433e-06
1.18545749e-06
1.2355871e-06
1.28630599e-06
1.33757416e-06
1.38935395e-06
1.44159032e-06
1.49423292e-06
1.5472441e-06
1.60058572e-06
1.65423377e-06
1.70817156e-06
1.76238845e-06
1.81687813e-06
1.87163596e-06
1.92665609e-06
1.98193413e-06
2.03746635e-06
2.09325934e-06
2.14930464e-06
2.20561544e-06
2.26220437e-06
2.31909414e-06
2.37628339e-06
2.43378705e-06
2.49167195e-06
2.550116e-06
2.60951883e-06
2.67050598e-06
2.73398495e-06
2.80130266e-06
2.87449416e-06
2.95657971e-06
3.05184748e-06
3.16615488e-06
3.30763254e-06
3.48737414e-06
3.72000149e-06
4.02403903e-06
4.42248844e-06
4.94134849e-06
5.60452304e-06
6.42407572e-06
7.38886788e-06
8.45761531e-06
9.56389773e-06
1.06314749e-05
1.15914329e-05
1.23920661e-05
1.30004708e-05
1.33993367e-05
1.3581419e-05
1.35452145e-05
1.32921299e-05
1.28238855e-05
1.21421908e-05
1.12485839e-05
1.0146233e-05
8.84294882e-06
7.36940668e-06
5.80475867e-06
4.28845638e-06
3.00610138e-06
2.06745363e-06
1.43033515e-06
9.99922848e-07
7.05391586e-07
5.03144756e-07
3.62602624e-07
2.62889311e-07
1.91344221e-07
1.39731178e-07
1.02177923e-07
7.47897345e-08
5.4942084e-08
4.05841318e-08
3.01812713e-08
2.26156244e-08
1.70853914e-08
1.30189653e-08
1.0009268e-08
7.76600479e-09
6.08121311e-09
4.80423465e-09
3.82304622e-09
3.05811839e-09
2.45626367e-09
1.97897858e-09
1.59818766e-09
1.29312055e-09
1.04813487e-09
8.51238809e-10
6.93091992e-10
5.66120348e-10
4.64231367e-10
3.82736751e-10
3.17719155e-10
2.65957841e-10
2.24823954e-10
1.92176883e-10
1.66281144e-10
1.4573975e-10
1.29439801e-10
1.16505223e-10
1.06254496e-10
9.81654287e-11
9.18467567e-11
8.70113871e-11
8.34505397e-11
8.10084919e-11
7.95819229e-11
7.90908122e-11
7.94779815e-11
8.06862717e-11
8.26675101e-11
8.53844591e-11
8.87788145e-11
9.27797358e-11
9.73242877e-11
1.02361834e-10
1.0785682e-10
1.13726152e-10
1.1987018e-10
1.26261109e-10
1.32830616e-10
1.39579906e-10
1.46360242e-10
1.53085767e-10
1.59780928e-10
1.66397834e-10
1.72910515e-10
1.79216764e-10
1.85321559e-10
1.91227779e-10
1.96946356e-10
2.02434901e-10
2.07592706e-10
2.12607971e-10
2.17481558e-10
2.22177341e-10
2.2669383e-10
2.31015652e-10
2.35150217e-10
2.39085857e-10
2.42809824e-10
2.46311792e-10
2.4959482e-10
2.52680969e-10
2.5559876e-10
2.58376514e-10
2.61040164e-10
2.63609543e-10
2.66094964e-10
2.68497736e-10
2.70815222e-10
2.7305186e-10
2.75214449e-10
2.7718903e-10
2.79012675e-10
2.80690329e-10
2.82216219e-10
2.83586773e-10
2.8480293e-10
2.85869257e-10
2.86792783e-10
2.87582147e-10
2.88246969e-10
2.88797322e-10
2.89243178e-10
2.89593814e-10
2.89857133e-10
2.90038993e-10
2.90142745e-10
2.90169437e-10
2.90119586e-10
2.89985889e-10
2.8977361e-10
2.89484621e-10
2.89124507e-10
2.88701732e-10
2.88226488e-10
2.87709474e-10
2.87160994e-10
2.86590725e-10
2.86008488e-10
2.85426701e-10
2.84865971e-10
2.84367447e-10
2.84019659e-10
3.37335294e-12
1.04527781e-11
2.09059325e-11
3.65438137e-11
5.86479361e-11
8.88511653e-11
1.31362897e-10
1.9392529e-10
2.87453457e-10
4.25811718e-10
6.2423974e-10
8.99423564e-10
1.26849664e-09
1.75131398e-09
2.36958797e-09
3.14839353e-09
4.11464788e-09
5.29536308e-09
6.71759718e-09
8.40482113e-09
1.03796645e-08
1.26622979e-08
1.52732958e-08
1.82347968e-08
2.15689302e-08
2.53038421e-08
2.94601028e-08
3.40661703e-08
3.91301243e-08
4.46682231e-08
5.0684694e-08
5.71836725e-08
6.41669254e-08
7.16422249e-08
7.96189148e-08
8.81128795e-08
9.71411659e-08
1.06719411e-07
1.16863037e-07
1.27575594e-07
1.38863256e-07
1.50719107e-07
1.63146355e-07
1.76126455e-07
1.8969099e-07
2.03825358e-07
2.18530304e-07
2.3380572e-07
2.49650128e-07
2.66062801e-07
2.83044583e-07
3.00604408e-07
3.18758624e-07
3.37532715e-07
3.56958568e-07
3.77072081e-07
3.97908762e-07
4.19502554e-07
4.41884214e-07
4.65082327e-07
4.89124746e-07
5.14042999e-07
5.39870863e-07
5.66655162e-07
5.94440085e-07
6.23276726e-07
6.53229194e-07
6.84351946e-07
7.16696243e-07
7.50295173e-07
7.85163311e-07
8.21285433e-07
8.58618792e-07
8.97102742e-07
9.36650006e-07
9.77202799e-07
1.0186428e-06
1.06093885e-06
1.10404929e-06
1.14795432e-06
1.19263666e-06
1.23808516e-06
1.28428553e-06
1.33121117e-06
1.37882293e-06
1.42707474e-06
1.47591668e-06
1.52530397e-06
1.57519456e-06
1.62556135e-06
1.67638851e-06
1.72766893e-06
1.77940025e-06
1.83158192e-06
1.88421268e-06
1.9372873e-06
1.99079725e-06
2.04473642e-06
2.09910291e-06
2.15390942e-06
2.20915961e-06
2.26488706e-06
2.32113526e-06
2.37795953e-06
2.43537884e-06
2.49344232e-06
2.55228617e-06
2.61221678e-06
2.67379808e-06
2.73784316e-06
2.805418e-06
2.87810508e-06
2.95825993e-06
3.04928607e-06
3.15587007e-06
3.28418792e-06
3.44278708e-06
3.64317118e-06
3.90014981e-06
4.23185815e-06
4.66040262e-06
5.20950889e-06
5.89869975e-06
6.73366801e-06
7.69746555e-06
8.74569123e-06
9.81310605e-06
1.08277907e-05
1.17264928e-05
1.24625776e-05
1.30067266e-05
1.33438519e-05
1.34675776e-05
1.33767383e-05
1.30731063e-05
1.25585409e-05
1.18355037e-05
1.09065166e-05
9.77658548e-06
8.45803094e-06
6.99191709e-06
5.46475103e-06
4.01971727e-06
2.82692919e-06
1.9610853e-06
1.36766433e-06
9.61726897e-07
6.81359175e-07
4.87459235e-07
3.52145078e-07
2.55664076e-07
1.86287786e-07
1.36198687e-07
9.96670519e-08
7.30624108e-08
5.37719283e-08
3.97956234e-08
2.96495468e-08
2.2255382e-08
1.68394147e-08
1.28493874e-08
9.89113333e-09
7.68280397e-09
6.02198697e-09
4.76190818e-09
3.79331085e-09
3.03711603e-09
2.44116919e-09
1.96791316e-09
1.58992797e-09
1.28687073e-09
1.04336881e-09
8.47600018e-10
6.90341816e-10
5.64057659e-10
4.62683544e-10
3.81618673e-10
3.16942314e-10
2.65449338e-10
2.24525097e-10
1.92040886e-10
1.66271249e-10
1.45827664e-10
1.29604366e-10
1.16731214e-10
1.06531439e-10
9.84864798e-11
9.22078229e-11
8.74102599e-11
8.38860281e-11
8.14798426e-11
8.00870907e-11
7.96300562e-11
8.0050071e-11
8.12878315e-11
8.32946562e-11
8.60352968e-11
8.94532165e-11
9.34738758e-11
9.80315806e-11
1.03076557e-10
1.08575768e-10
1.14451379e-10
1.20597247e-10
1.26980146e-10
1.33538356e-10
1.4027857e-10
1.47049134e-10
1.53759127e-10
1.60435559e-10
1.67034276e-10
1.73531101e-10
1.79822874e-10
1.85907746e-10
1.91791561e-10
1.97489249e-10
2.02961382e-10
2.08127564e-10
2.13109012e-10
2.17947476e-10
2.22617127e-10
2.27109607e-10
2.31407958e-10
2.3551908e-10
2.39432808e-10
2.431368e-10
2.46621175e-10
2.49889028e-10
2.52962123e-10
2.55868589e-10
2.58635912e-10
2.61289015e-10
2.6384696e-10
2.66319715e-10
2.6870853e-10
2.71010914e-10
2.73231946e-10
2.7538678e-10
2.77339723e-10
2.7914669e-10
2.80810069e-10
2.82322754e-10
2.83681026e-10
2.84885932e-10
2.85942081e-10
2.86856453e-10
2.8763758e-10
2.88294956e-10
2.88838515e-10
2.89278096e-10
2.89622844e-10
2.89880541e-10
2.90056949e-10
2.90155356e-10
2.90176796e-10
2.90121445e-10
2.89983284e-10
2.89766658e-10
2.89473726e-10
2.89110173e-10
2.88684462e-10
2.88206736e-10
2.87687621e-10
2.87137337e-10
2.86565484e-10
2.85981822e-10
2.8539873e-10
2.84836812e-10
2.84337266e-10
2.83988717e-10
1.35566414e-10
3.30298616e-10
5.76450638e-10
8.69398639e-10
1.19970234e-09
1.59204139e-09
2.16362735e-09
3.05272761e-09
4.37056853e-09
6.18599787e-09
8.51821946e-09
1.13583905e-08
1.47026387e-08
1.85821194e-08
2.30425457e-08
2.81362463e-08
3.38829327e-08
4.02683186e-08
4.72405261e-08
5.47218806e-08
6.26472011e-08
7.09738306e-08
7.97056486e-08
8.88650867e-08
9.85010638e-08
1.08643367e-07
1.19300435e-07
1.30449806e-07
1.42013084e-07
1.53948389e-07
1.66220089e-07
1.78828801e-07
1.91812124e-07
2.05232863e-07
2.19154845e-07
2.33620981e-07
2.48634746e-07
2.64164441e-07
2.80152485e-07
2.96532568e-07
3.13255927e-07
3.30289544e-07
3.47629872e-07
3.65256182e-07
3.83209004e-07
4.01450506e-07
4.19950438e-07
4.3867223e-07
4.57585025e-07
4.76673615e-07
4.95946216e-07
5.154344e-07
5.3518288e-07
5.55240296e-07
5.75644872e-07
5.9642087e-07
6.17578953e-07
6.39125785e-07
6.61073865e-07
6.8344752e-07
7.06290184e-07
7.29662704e-07
7.53643711e-07
7.78321254e-07
8.03784953e-07
8.30121538e-07
8.57413692e-07
8.85724989e-07
9.15100923e-07
9.45557576e-07
9.77082736e-07
1.00963392e-06
1.04315103e-06
1.07756838e-06
1.11282597e-06
1.14889707e-06
1.18574926e-06
1.22341156e-06
1.26191065e-06
1.30127529e-06
1.34153152e-06
1.38267932e-06
1.42469474e-06
1.46753831e-06
1.51115212e-06
1.55548411e-06
1.60048511e-06
1.64612523e-06
1.69239233e-06
1.7392907e-06
1.78683707e-06
1.83505126e-06
1.88394915e-06
1.93354094e-06
1.98382896e-06
2.0348056e-06
2.08645993e-06
2.13878861e-06
2.19179991e-06
2.24551831e-06
2.29998116e-06
2.35526241e-06
2.41146081e-06
2.46868496e-06
2.52697757e-06
2.58643651e-06
2.64733827e-06
2.71021748e-06
2.77590277e-06
2.84548819e-06
2.92025687e-06
3.00214701e-06
3.09401129e-06
3.19982833e-06
3.32483512e-06
3.4755428e-06
3.66108571e-06
3.89346831e-06
4.18751332e-06
4.56021122e-06
5.03189378e-06
5.622236e-06
6.343732e-06
7.19272751e-06
8.14539019e-06
9.15455277e-06
1.01580542e-05
1.10904018e-05
1.18962707e-05
1.25358907e-05
1.29847312e-05
1.32307252e-05
1.32685099e-05
1.30974417e-05
1.27200733e-05
1.21384801e-05
1.13565931e-05
1.03785617e-05
9.21245748e-06
7.88144088e-06
6.43794243e-06
4.97906704e-06
3.64856309e-06
2.5848114e-06
1.81594851e-06
1.28025369e-06
9.07572407e-07
6.46910863e-07
4.64288434e-07
3.36656125e-07
2.44907394e-07
1.78757557e-07
1.30957678e-07
9.6013868e-08
7.05643541e-08
5.20806444e-08
3.86546158e-08
2.88783361e-08
2.17313925e-08
1.6480448e-08
1.26010614e-08
9.71754488e-09
7.56015942e-09
5.93442011e-09
4.69892197e-09
3.74864725e-09
3.00553602e-09
2.41841295e-09
1.95118733e-09
1.57741695e-09
1.2773912e-09
1.03613519e-09
8.42076769e-10
6.86172338e-10
5.60884841e-10
4.60335334e-10
3.7992867e-10
3.15770946e-10
2.64685284e-10
2.24079013e-10
1.91841616e-10
1.66263088e-10
1.45967949e-10
1.29861086e-10
1.17081026e-10
1.06958353e-10
9.89805131e-11
9.27631315e-11
8.80231127e-11
8.45537817e-11
8.22015836e-11
8.08605758e-11
8.04548889e-11
8.09234871e-11
8.2206294e-11
8.42521263e-11
8.70271397e-11
9.04773423e-11
9.45275785e-11
9.91125954e-11
1.04168368e-10
1.09668115e-10
1.15544761e-10
1.21698022e-10
1.28081437e-10
1.34620214e-10
1.41335918e-10
1.48082098e-10
1.54778027e-10
1.6143818e-10
1.68004603e-10
1.74467092e-10
1.80731644e-10
1.86796559e-10
1.92653938e-10
1.98315444e-10
2.03754059e-10
2.08911965e-10
2.13867125e-10
2.18657982e-10
2.23285834e-10
2.27739003e-10
2.32002289e-10
2.36080566e-10
2.39961462e-10
2.43633839e-10
2.47090475e-10
2.50335146e-10
2.5338838e-10
2.56277089e-10
2.59027905e-10
2.61664646e-10
2.6420519e-10
2.66658753e-10
2.69026432e-10
2.71305993e-10
2.73503428e-10
2.75647781e-10
2.77566476e-10
2.79348758e-10
2.80990836e-10
2.8248365e-10
2.83823387e-10
2.85011301e-10
2.8605207e-10
2.86952598e-10
2.87721261e-10
2.88367358e-10
2.88900621e-10
2.89330685e-10
2.896665e-10
2.89915672e-10
2.90083815e-10
2.90174128e-10
2.90187601e-10
2.90123972e-10
2.89979098e-10
2.89755869e-10
2.8945698e-10
2.89088232e-10
2.88658083e-10
2.88176602e-10
2.87654304e-10
2.87101287e-10
2.86527035e-10
2.85941214e-10
2.85356144e-10
2.84792428e-10
2.84291341e-10
2.83941692e-10
5.2638596e-09
7.95505776e-09
1.00298725e-08
1.16104889e-08
1.28158556e-08
1.47919212e-08
2.04095144e-08
2.99579131e-08
4.23926718e-08
5.63479193e-08
7.05591115e-08
8.43419029e-08
9.80362527e-08
1.12418103e-07
1.27985113e-07
1.44731155e-07
1.62224004e-07
1.79782357e-07
1.96705505e-07
2.12639714e-07
2.27736257e-07
2.42490592e-07
2.57494159e-07
2.73193424e-07
2.89787474e-07
3.07144562e-07
3.24935762e-07
3.42648569e-07
3.59995261e-07
3.7693938e-07
3.9371051e-07
4.10690973e-07
4.28271486e-07
4.46711303e-07
4.66045884e-07
4.86077677e-07
5.06454409e-07
5.26821142e-07
5.46930632e-07
5.66703519e-07
5.86208897e-07
6.05593423e-07
6.25004527e-07
6.44485006e-07
6.6405929e-07
6.83592254e-07
7.02949503e-07
7.22037448e-07
7.40845015e-07
7.59448519e-07
7.77982884e-07
7.96597726e-07
8.15407125e-07
8.34463045e-07
8.53742538e-07
8.73179186e-07
8.92701361e-07
9.12276665e-07
9.3193087e-07
9.51740681e-07
9.71823517e-07
9.9231766e-07
1.01337461e-06
1.03511411e-06
1.05764906e-06
1.08105359e-06
1.10537317e-06
1.13062618e-06
1.15679926e-06
1.18383641e-06
1.21165442e-06
1.2401545e-06
1.26925339e-06
1.29890421e-06
1.32911298e-06
1.3599434e-06
1.39148994e-06
1.42387394e-06
1.45719752e-06
1.49153367e-06
1.52691448e-06
1.56332118e-06
1.60069413e-06
1.63895785e-06
1.67803313e-06
1.71787475e-06
1.75845859e-06
1.79979811e-06
1.84193699e-06
1.88493233e-06
1.92884341e-06
1.97371857e-06
2.01958831e-06
2.06646698e-06
2.114354e-06
2.16323704e-06
2.21310526e-06
2.26397126e-06
2.31586098e-06
2.36883343e-06
2.42299179e-06
2.47847794e-06
2.5354781e-06
2.59417655e-06
2.65461488e-06
2.7169705e-06
2.78177923e-06
2.84993618e-06
2.92265501e-06
3.00138317e-06
3.08758417e-06
3.18371698e-06
3.29331816e-06
3.42109751e-06
3.57289541e-06
3.75530892e-06
3.97822204e-06
4.25401462e-06
4.59690396e-06
5.02110513e-06
5.5440291e-06
6.17904648e-06
6.92909363e-06
7.77908037e-06
8.70008898e-06
9.6442024e-06
1.055503e-05
1.13747547e-05
1.20574952e-05
1.25713136e-05
1.28970135e-05
1.30261207e-05
1.29540517e-05
1.26809737e-05
1.22109938e-05
1.15463306e-05
1.06936796e-05
9.65816182e-06
8.45922688e-06
7.13099004e-06
5.73890933e-06
4.39134999e-06
3.21924004e-06
2.30915199e-06
1.64716489e-06
1.17581374e-06
8.41566135e-07
6.04372704e-07
4.36022172e-07
3.16681541e-07
2.30921257e-07
1.68971635e-07
1.24311989e-07
9.14489251e-08
6.74535937e-08
4.99729354e-08
3.72286017e-08
2.79109655e-08
2.10712949e-08
1.6026026e-08
1.22851263e-08
9.49560603e-09
7.40265355e-09
5.82150038e-09
4.6172525e-09
3.6898942e-09
2.96389145e-09
2.38828446e-09
1.92896048e-09
1.56074263e-09
1.26473366e-09
1.02646828e-09
8.34694535e-10
6.80609469e-10
5.56638124e-10
4.57210074e-10
3.77684081e-10
3.14220167e-10
2.63678916e-10
2.23497253e-10
1.91589146e-10
1.66265534e-10
1.46168636e-10
1.30217455e-10
1.17561757e-10
1.07542004e-10
9.96541316e-11
9.35192116e-11
8.88562711e-11
8.54597254e-11
8.31787933e-11
8.19076439e-11
8.15697221e-11
8.21011172e-11
8.34441699e-11
8.55430282e-11
8.8361934e-11
9.18501486e-11
9.59375016e-11
1.00565886e-10
1.05637925e-10
1.11132068e-10
1.16999568e-10
1.23163732e-10
1.29561096e-10
1.36074594e-10
1.42747568e-10
1.49449253e-10
1.56132548e-10
1.62782882e-10
1.69304186e-10
1.75711508e-10
1.81932344e-10
1.87978841e-10
1.93809019e-10
1.99419729e-10
2.04806297e-10
2.0993403e-10
2.14863548e-10
2.19607375e-10
2.24179177e-10
2.28577756e-10
2.32794728e-10
2.36831939e-10
2.40669756e-10
2.44298972e-10
2.47717621e-10
2.50931118e-10
2.53957625e-10
2.568219e-10
2.59549775e-10
2.62164034e-10
2.64681031e-10
2.67108784e-10
2.69448145e-10
2.71697245e-10
2.73862852e-10
2.75996334e-10
2.77865732e-10
2.79616408e-10
2.81230639e-10
2.82697159e-10
2.84012298e-10
2.85177647e-10
2.86197984e-10
2.87080108e-10
2.87832183e-10
2.88463256e-10
2.8898279e-10
2.89400158e-10
2.89724052e-10
2.89961847e-10
2.90118969e-10
2.90198499e-10
2.90201389e-10
2.90127248e-10
2.89973006e-10
2.89740977e-10
2.89434183e-10
2.8905854e-10
2.886225e-10
2.8813603e-10
2.87609498e-10
2.87052842e-10
2.86475395e-10
2.85886697e-10
2.85298992e-10
2.8473288e-10
2.84229744e-10
2.83878654e-10
1.2481289e-07
9.14445594e-08
7.03286705e-08
5.62595233e-08
4.66206556e-08
6.03431291e-08
1.24167321e-07
1.90622164e-07
2.411607e-07
2.73289333e-07
2.8972513e-07
2.980477e-07
3.10867421e-07
3.32854552e-07
3.61187639e-07
3.90563724e-07
4.16470528e-07
4.36150162e-07
4.48848516e-07
4.57256512e-07
4.65558837e-07
4.76953027e-07
4.92684674e-07
5.12229819e-07
5.3399111e-07
5.55873315e-07
5.75957859e-07
5.93164784e-07
6.08035344e-07
6.22089745e-07
6.37037379e-07
6.54118685e-07
6.73779488e-07
6.95636276e-07
7.18661152e-07
7.41535246e-07
7.63162916e-07
7.83083085e-07
8.01487132e-07
8.18977902e-07
8.36238787e-07
8.53766752e-07
8.71741015e-07
8.89968471e-07
9.08157086e-07
9.25879974e-07
9.42873366e-07
9.59130479e-07
9.74885723e-07
9.90497007e-07
1.00630758e-06
1.02254228e-06
1.03924822e-06
1.056306e-06
1.07348104e-06
1.09055088e-06
1.10739556e-06
1.12404916e-06
1.14067033e-06
1.15747352e-06
1.17467927e-06
1.19250502e-06
1.21113053e-06
1.23064418e-06
1.25109657e-06
1.27249072e-06
1.29479979e-06
1.31796085e-06
1.34187769e-06
1.36640597e-06
1.39139519e-06
1.41671186e-06
1.44229392e-06
1.46816876e-06
1.49445385e-06
1.52133477e-06
1.5490173e-06
1.57768582e-06
1.60746801e-06
1.63842668e-06
1.67055037e-06
1.70376498e-06
1.73796098e-06
1.77303246e-06
1.80890098e-06
1.84555097e-06
1.88300815e-06
1.92134615e-06
1.96066503e-06
2.00106552e-06
2.04263413e-06
2.08543004e-06
2.12948398e-06
2.17480245e-06
2.22137742e-06
2.26919554e-06
2.31825049e-06
2.36858014e-06
2.42023476e-06
2.47332729e-06
2.52802086e-06
2.5845331e-06
2.64313472e-06
2.70407116e-06
2.76731689e-06
2.83316378e-06
2.90244898e-06
2.97641677e-06
3.05660575e-06
3.14470957e-06
3.24215962e-06
3.35195174e-06
3.4781924e-06
3.62611964e-06
3.80188303e-06
4.01160682e-06
4.26587813e-06
4.5769351e-06
4.95769871e-06
5.41852625e-06
5.97451388e-06
6.63333209e-06
7.39064705e-06
8.22329524e-06
9.10303572e-06
9.98304995e-06
1.08126507e-05
1.15385693e-05
1.21218409e-05
1.25358362e-05
1.27648559e-05
1.28031511e-05
1.26461305e-05
1.22948989e-05
1.17555028e-05
1.10299003e-05
1.01266958e-05
9.05743456e-06
7.84855858e-06
6.54336027e-06
5.21586064e-06
3.97557944e-06
2.92877985e-06
2.12219018e-06
1.52901482e-06
1.10055547e-06
7.9300036e-07
5.72608752e-07
4.14852974e-07
3.02102621e-07
2.2080508e-07
1.61922751e-07
1.19336406e-07
8.80230991e-08
6.51173052e-08
4.83859303e-08
3.61503903e-08
2.71758855e-08
2.05667215e-08
1.56763523e-08
1.20404046e-08
9.32259749e-09
7.27917153e-09
5.73252221e-09
4.55254472e-09
3.6428197e-09
2.93020034e-09
2.36377565e-09
1.91079345e-09
1.54706412e-09
1.25432658e-09
1.0185121e-09
8.28617415e-10
6.76045482e-10
5.53161993e-10
4.54651471e-10
3.75851449e-10
3.12959282e-10
2.6286617e-10
2.2303375e-10
1.91396382e-10
1.66282207e-10
1.46348009e-10
1.30524772e-10
1.17971836e-10
1.08037414e-10
1.00223706e-10
9.41562882e-11
8.95567796e-11
8.62208927e-11
8.39987986e-11
8.27845783e-11
8.25011642e-11
8.30841335e-11
8.44748654e-11
8.66173376e-11
8.94728215e-11
9.29933433e-11
9.7107632e-11
1.0176249e-10
1.06850407e-10
1.12345317e-10
1.1821089e-10
1.24373426e-10
1.3076834e-10
1.37267293e-10
1.43915721e-10
1.50586674e-10
1.57244139e-10
1.63873237e-10
1.70365359e-10
1.76738199e-10
1.82925622e-10
1.88943295e-10
1.94744511e-10
2.00320838e-10
2.05671872e-10
2.10770148e-10
2.15670915e-10
2.20378315e-10
2.249097e-10
2.2926745e-10
2.33446536e-10
2.37447836e-10
2.41250667e-10
2.44846287e-10
2.48234648e-10
2.51422157e-10
2.54426103e-10
2.57270046e-10
2.59978782e-10
2.62573986e-10
2.65070887e-10
2.67476836e-10
2.69792582e-10
2.72016466e-10
2.74155152e-10
2.76283731e-10
2.7810762e-10
2.79834152e-10
2.81426022e-10
2.82871128e-10
2.84166188e-10
2.85313122e-10
2.86316783e-10
2.87183876e-10
2.87922391e-10
2.88541168e-10
2.89049457e-10
2.89456414e-10
2.89770529e-10
2.89998991e-10
2.90147076e-10
2.90217773e-10
2.90212016e-10
2.90129445e-10
2.89967426e-10
2.89728206e-10
2.89414969e-10
2.89033708e-10
2.88592862e-10
2.88102316e-10
2.8757232e-10
2.8701268e-10
2.86432605e-10
2.85841538e-10
2.85251663e-10
2.84683575e-10
2.8417875e-10
2.8382648e-10
2.17920661e-26
4.26227109e-26
4.45926498e-26
3.17251853e-26
2.16378369e-26
1.45169754e-26
9.53132326e-27
6.20122757e-27
4.13605589e-27
2.82919297e-27
1.96964718e-27
1.41702441e-27
1.0352526e-27
7.95768843e-28
6.21262143e-28
5.04606649e-28
4.3503313e-28
3.69126455e-28
3.22636809e-28
2.80359903e-28
2.54021661e-28
2.24906923e-28
2.02668263e-28
1.86698332e-28
1.72134598e-28
1.6422696e-28
1.5632627e-28
3.10532164e-28
1.02332138e-26
6.15979744e-25
3.72497762e-23
2.22824143e-21
1.31494541e-19
7.63252952e-18
4.33509275e-16
2.38982941e-14
1.25955242e-12
6.12000871e-11
2.39813686e-09
2.30102992e-08
2.60355186e-26
4.06680191e-26
3.45581168e-26
3.81380648e-26
2.79472731e-26
2.13545683e-26
1.54953876e-26
1.09903914e-26
7.78671591e-27
5.53398519e-27
3.98595811e-27
2.89081902e-27
2.16347799e-27
1.61371434e-27
1.2424822e-27
9.7844045e-28
7.98804067e-28
6.58103916e-28
5.54519751e-28
4.68290259e-28
4.09117419e-28
3.54096087e-28
3.11147304e-28
2.83159698e-28
2.44319102e-28
2.24034908e-28
2.08230782e-28
2.2398653e-28
2.16104384e-27
1.22718714e-25
7.49156104e-24
4.52467558e-22
2.69291272e-20
1.57082957e-18
8.90884803e-17
4.8538045e-15
2.48460968e-13
1.14420097e-11
4.22426198e-10
7.90788375e-09
5.27751277e-27
2.26051111e-26
2.638055e-26
2.97251028e-26
3.46980697e-26
3.14668143e-26
2.36700402e-26
1.80942485e-26
1.39722612e-26
1.08369421e-26
8.38291769e-27
6.41487463e-27
4.91889491e-27
3.76607982e-27
2.91157661e-27
2.25293723e-27
1.7711739e-27
1.41835711e-27
1.14034675e-27
9.34761883e-28
7.75716701e-28
6.5738573e-28
5.50741428e-28
4.66820257e-28
4.00223808e-28
3.48714644e-28
3.1135175e-28
2.80615291e-28
5.71841895e-28
2.02528501e-26
1.2090082e-24
7.17012592e-23
4.1631759e-21
2.34678231e-19
1.26932073e-17
6.47951887e-16
3.03364227e-14
1.24231603e-12
3.98340189e-11
7.43810928e-10
4.79223473e-27
1.5169512e-26
2.5550319e-26
3.71265051e-26
3.44626837e-26
3.3644773e-26
2.44707583e-26
1.97913027e-26
1.65365864e-26
1.37359182e-26
1.12804611e-26
9.11027608e-27
7.25517096e-27
5.71910615e-27
4.50892005e-27
3.54517843e-27
2.79917981e-27
2.23501016e-27
1.80131959e-27
1.45418794e-27
1.1821873e-27
9.66468521e-28
7.92396171e-28
6.53414647e-28
5.48442371e-28
4.65854827e-28