/*--------------------------------*- C++ -*----------------------------------*\
  =========                 |
  \\      /  F ield         | OpenFOAM: The Open Source CFD Toolbox
   \\    /   O peration     | Website:  https://openfoam.org
    \\  /    A nd           | Version:  6
     \\/     M anipulation  |
\*---------------------------------------------------------------------------*/
FoamFile
{
    version     2.0;
    format      ascii;
    class       volScalarField;
    location    "25000";
    object      HCN;
}
// * * * * * * * * * * * * * * * * * * * * * * * * * * * * * * * * * * * * * //

dimensions      [0 0 0 0 0 0 0];

internalField   nonuniform List<scalar> 
44870
(
1.78174959e-72
6.0300671e-72
9.6168606e-72
8.63627299e-72
1.04189628e-71
1.08914595e-71
1.50032687e-71
1.71723414e-71
1.54670029e-71
1.6593499e-71
2.66322819e-71
2.82642178e-71
2.69116516e-71
2.79106385e-71
3.34470534e-71
7.85163177e-71
6.87057305e-69
1.06151157e-66
1.67364027e-64
2.68423101e-62
4.37701555e-60
7.25430881e-58
1.22132538e-55
2.08796403e-53
3.62245838e-51
6.37535994e-49
1.13735996e-46
2.05592424e-44
3.76162943e-42
6.96283369e-40
1.30170974e-37
2.4556351e-35
4.6606033e-33
8.88017199e-31
1.68816758e-28
3.18251877e-26
5.86073245e-24
1.03356607e-21
1.64399869e-19
2.21460363e-17
8.94845185e-73
3.15941144e-72
7.43937419e-72
9.15751105e-72
1.30098249e-71
1.53298131e-71
1.53569195e-71
1.28220047e-71
1.45024087e-71
2.23072813e-71
2.8168021e-71
2.45365291e-71
2.95043492e-71
2.64950792e-71
3.06910268e-71
8.05022003e-71
9.02612232e-69
1.5280227e-66
2.64382827e-64
4.65683541e-62
8.33626244e-60
1.51581917e-57
2.79511868e-55
5.22685534e-53
9.89476051e-51
1.89756743e-48
3.67893521e-46
7.22137722e-44
1.43144603e-41
2.87242192e-39
5.81469943e-37
1.19164019e-34
2.46026659e-32
5.14250309e-30
1.07998478e-27
2.29076613e-25
4.83832267e-23
1.02008766e-20
2.01111975e-18
3.77409799e-16
6.40565692e-72
1.40612314e-71
1.78849025e-71
1.58455096e-71
1.4394311e-71
2.11725681e-71
2.35664616e-71
2.21175622e-71
2.00885539e-71
2.14161757e-71
2.81412362e-71
2.87840169e-71
2.48237432e-71
2.76368763e-71
2.67591219e-71
1.53220877e-70
2.4348894e-68
4.85067908e-66
9.7586144e-64
1.97974046e-61
4.04204347e-59
8.31168368e-57
1.71769594e-54
3.5745779e-52
7.4693509e-50
1.57253802e-47
3.32213256e-45
7.07776807e-43
1.51207203e-40
3.26281833e-38
7.0538558e-36
1.54324451e-33
3.3780157e-31
7.50361305e-29
1.66629094e-26
3.76601807e-24
8.49841314e-22
1.9675611e-19
4.37233338e-17
9.98491428e-15
5.70145975e-72
6.68280537e-72
9.0915667e-72
8.75615779e-72
1.5144933e-71
1.54113378e-71
1.49520964e-71
1.58278945e-71
1.17029959e-71
9.05379944e-72
2.73019054e-71
4.08905495e-71
4.03022675e-71
2.73902924e-71
3.14122659e-71
1.27536512e-69
2.79259297e-67
6.2840388e-65
1.40710387e-62
3.13753575e-60
6.97105102e-58
1.54453579e-55
3.41343358e-53
7.53376059e-51
1.66014388e-48
3.65868677e-46
8.05795057e-44
1.7770361e-41
3.91869096e-39
8.66676079e-37
1.91720597e-34
4.26003229e-32
9.4676232e-30
2.11676353e-27
4.73326232e-25
1.06422993e-22
2.38654533e-20
5.35961345e-18
1.16478008e-15
2.46227226e-13
2.66817054e-71
2.43509876e-71
1.53774895e-71
1.52684991e-71
2.03569252e-71
1.68626267e-71
2.07453771e-71
2.2691565e-71
3.90458033e-71
4.27456464e-71
3.79896943e-71
2.14519418e-71
2.89143625e-71
3.44624211e-71
1.29532499e-70
2.40531156e-68
5.6169256e-66
1.29760456e-63
2.96706516e-61
6.72363487e-59
1.51166699e-56
3.37537175e-54
7.49168125e-52
1.65414159e-49
3.63577599e-47
7.96053862e-45
1.73715782e-42
3.77939441e-40
8.20275439e-38
1.77637895e-35
3.84022465e-33
8.28894514e-31
1.78699539e-28
3.84827675e-26
8.28082444e-24
1.78053935e-21
3.82660327e-19
8.21936247e-17
1.76472614e-14
3.80761412e-12
7.06922272e-16
2.95173514e-15
7.68497027e-15
1.65141911e-14
3.21160015e-14
6.25244113e-14
1.310008e-13
2.92297116e-13
6.52918628e-13
1.40040729e-12
2.82715298e-12
5.38113865e-12
9.68539706e-12
1.663479e-11
2.74233637e-11
4.36479872e-11
6.74391161e-11
1.0145252e-10
1.4930175e-10
2.15228871e-10
3.04911511e-10
4.25124043e-10
5.8444145e-10
7.93543387e-10
1.0655237e-09
1.4169307e-09
1.86630393e-09
2.44017613e-09
3.16452426e-09
4.07947372e-09
5.22507081e-09
6.65418622e-09
8.42985392e-09
1.0619785e-08
1.33169775e-08
1.66121065e-08
2.06333351e-08
2.55042921e-08
3.13926164e-08
3.84700863e-08
4.69550602e-08
5.70878416e-08
6.91480846e-08
8.34459043e-08
1.0032507e-07
1.20146396e-07
1.43296043e-07
1.70185903e-07
2.01255479e-07
2.36978054e-07
2.77853979e-07
3.24418863e-07
3.77221121e-07
4.36829057e-07
5.03790306e-07
5.7863306e-07
6.61818502e-07
7.53742792e-07
8.54712128e-07
9.64954703e-07
1.08462874e-06
1.21382742e-06
1.35261891e-06
1.5010264e-06
1.65912104e-06
1.82694509e-06
2.00464276e-06
2.19231549e-06
2.39012965e-06
2.59810183e-06
2.81617234e-06
3.0440788e-06
3.28133881e-06
3.52747285e-06
3.78167455e-06
4.04352474e-06
4.31241271e-06
4.58796455e-06
4.86990384e-06
5.1581066e-06
5.45245105e-06
5.75280814e-06
6.05906967e-06
6.37106629e-06
6.6886371e-06
7.0115907e-06
7.33989559e-06
7.67347542e-06
8.01238975e-06
8.35677502e-06
8.706735e-06
9.06237166e-06
9.42365139e-06
9.79044974e-06
1.01625634e-05
1.05397602e-05
1.09218349e-05
1.1308698e-05
1.17004264e-05
1.20973513e-05
1.25000086e-05
1.29091268e-05
1.33255901e-05
1.3750449e-05
1.41847985e-05
1.46298908e-05
1.50870459e-05
1.55575596e-05
1.60429598e-05
1.65448367e-05
1.70650481e-05
1.76056717e-05
1.81690976e-05
1.87582349e-05
1.93765673e-05
2.00283039e-05
2.07185649e-05
2.14535864e-05
2.22409378e-05
2.30897226e-05
2.40107047e-05
2.50162746e-05
2.61200831e-05
2.73361292e-05
2.86768857e-05
3.01504199e-05
3.17565343e-05
3.34827749e-05
3.53020511e-05
3.71736085e-05
3.90463568e-05
4.08632894e-05
4.25659195e-05
4.40964843e-05
4.53979458e-05
4.64129877e-05
4.70804084e-05
4.73287796e-05
4.7068556e-05
4.61805916e-05
4.44509318e-05
4.16135352e-05
3.73936216e-05
3.17614852e-05
2.5325927e-05
1.91483079e-05
1.39808025e-05
1.00163216e-05
7.13051978e-06
5.06154502e-06
3.59754978e-06
2.56540018e-06
1.83682736e-06
1.32070503e-06
9.53521398e-07
6.91210959e-07
5.03022445e-07
3.67442281e-07
2.69367754e-07
1.98152252e-07
1.46253384e-07
1.08304419e-07
8.04678212e-08
5.99877498e-08
4.48770912e-08
3.36975592e-08
2.54050396e-08
1.92388202e-08
1.46427378e-08
1.12090093e-08
8.63785945e-09
6.70840229e-09
5.25757275e-09
4.16483387e-09
3.34053388e-09
2.71806471e-09
2.24840604e-09
1.89504669e-09
1.63075171e-09
1.43524509e-09
1.29342563e-09
1.19403429e-09
1.128665e-09
1.09102864e-09
1.07639705e-09
1.08118401e-09
1.10264444e-09
1.1386552e-09
1.18751854e-09
1.24783425e-09
1.31840275e-09
1.39835639e-09
1.48676965e-09
1.58267977e-09
1.68514471e-09
1.79344747e-09
1.90708128e-09
2.02487217e-09
2.14557531e-09
2.26830148e-09
2.39245352e-09
2.51799702e-09
2.64354954e-09
2.76804201e-09
2.89123239e-09
3.01246734e-09
3.13241973e-09
3.24892865e-09
3.36126808e-09
3.46989041e-09
3.57460835e-09
3.67548257e-09
3.77118143e-09
3.86213775e-09
3.94841911e-09
4.03055894e-09
4.10821998e-09
4.18065587e-09
4.24947378e-09
4.31528754e-09
4.37801284e-09
4.4376404e-09
4.49407003e-09
4.54742319e-09
4.59760093e-09
4.64450257e-09
4.68801721e-09
4.72820326e-09
4.76536198e-09
4.79988972e-09
4.83218637e-09
4.86261547e-09
4.89145668e-09
4.91886254e-09
4.9448575e-09
4.96937903e-09
4.99234479e-09
5.01367413e-09
5.0329981e-09
5.0502631e-09
5.06546151e-09
5.07855621e-09
5.08955001e-09
5.09849225e-09
5.10547088e-09
5.11060183e-09
5.11401823e-09
5.11585952e-09
5.1162601e-09
5.11533742e-09
5.11317963e-09
5.10983427e-09
5.10530114e-09
5.09953554e-09
5.09247052e-09
5.08405099e-09
5.07412266e-09
5.0628186e-09
5.05024993e-09
5.03660242e-09
5.02211446e-09
5.00704242e-09
4.99163186e-09
4.97610033e-09
4.96063708e-09
4.94542496e-09
4.93069849e-09
4.91687266e-09
4.90482889e-09
4.89655139e-09
1.45879612e-14
5.23620471e-14
1.18707622e-13
2.3076553e-13
4.19348439e-13
8.31075139e-13
1.89051848e-12
4.49952074e-12
1.02156117e-11
2.14937551e-11
4.17750008e-11
7.5907111e-11
1.30124079e-10
2.12898513e-10
3.3486648e-10
5.09501872e-10
7.53787265e-10
1.08759611e-09
1.53624099e-09
2.12721255e-09
2.89499764e-09
3.87829557e-09
5.12193785e-09
6.68074856e-09
8.61054229e-09
1.09854846e-08
1.38751534e-08
1.73713618e-08
2.15615634e-08
2.65555536e-08
3.24566472e-08
3.93873373e-08
4.74682066e-08
5.68313325e-08
6.76170016e-08
7.99658915e-08
9.4039784e-08
1.09988791e-07
1.28000637e-07
1.4824286e-07
1.70930816e-07
1.96253747e-07
2.24439031e-07
2.5569305e-07
2.90233243e-07
3.28269861e-07
3.70018804e-07
4.157074e-07
4.65577389e-07
5.19890258e-07
5.78924909e-07
6.4298303e-07
7.12377851e-07
7.87436997e-07
8.68487846e-07
9.55861534e-07
1.04987642e-06
1.15084548e-06
1.25906338e-06
1.37481357e-06
1.49835705e-06
1.6299385e-06
1.76977747e-06
1.91807659e-06
2.07503321e-06
2.24079499e-06
2.41555157e-06
2.59942443e-06
2.79252954e-06
2.99484836e-06
3.20628506e-06
3.42659286e-06
3.65539621e-06
3.89234101e-06
4.13689826e-06
4.38882984e-06
4.64779055e-06
4.91359793e-06
5.18609717e-06
5.46521753e-06
5.75079378e-06
6.04265352e-06
6.34062452e-06
6.64448513e-06
6.95405312e-06
7.26918517e-06
7.58988945e-06
7.91618905e-06
8.24819921e-06
8.586102e-06
8.92999092e-06
9.27990437e-06
9.63576215e-06
9.99737493e-06
1.03644859e-05
1.07368298e-05
1.11141985e-05
1.14965292e-05
1.18839492e-05
1.22768589e-05
1.26758477e-05
1.30816935e-05
1.34953224e-05
1.39178089e-05
1.43502536e-05
1.47939159e-05
1.52500874e-05
1.57200497e-05
1.6205317e-05
1.67074759e-05
1.72283565e-05
1.77700434e-05
1.83349711e-05
1.89260643e-05
1.95468326e-05
2.0201527e-05
2.08953109e-05
2.16344585e-05
2.24265611e-05
2.32807104e-05
2.42075977e-05
2.5219447e-05
2.63296054e-05
2.755158e-05
2.88971039e-05
3.03732435e-05
3.19786036e-05
3.36994649e-05
3.55077357e-05
3.73620257e-05
3.92111307e-05
4.09982799e-05
4.26654654e-05
4.41553472e-05
4.54110432e-05
4.63751518e-05
4.69860343e-05
4.71711815e-05
4.68395897e-05
4.58649629e-05
4.40355123e-05
4.10894684e-05
3.67745147e-05
3.1108364e-05
2.47397245e-05
1.86946637e-05
1.36633704e-05
9.80636182e-06
6.99383481e-06
4.97405358e-06
3.5415268e-06
2.52927198e-06
1.81328032e-06
1.30517443e-06
9.4318096e-07
6.84266413e-07
4.98319742e-07
3.64233255e-07
2.67162815e-07
1.96628109e-07
1.45194319e-07
1.07565119e-07
7.99497265e-08
5.9623536e-08
4.46204867e-08
3.35165524e-08
2.52773387e-08
1.91488521e-08
1.45795742e-08
1.11649494e-08
8.6074575e-09
6.68779516e-09
5.24401591e-09
4.15638597e-09
3.3357852e-09
2.71599641e-09
2.24833216e-09
1.89646796e-09
1.6333101e-09
1.43868618e-09
1.2975684e-09
1.19874864e-09
1.13385609e-09
1.09662634e-09
1.08234725e-09
1.08744137e-09
1.10916909e-09
1.14541309e-09
1.194477e-09
1.25495513e-09
1.3256441e-09
1.40568416e-09
1.4941665e-09
1.59010323e-09
1.69252131e-09
1.80074496e-09
1.91431757e-09
2.03206496e-09
2.15264128e-09
2.27515575e-09
2.39912785e-09
2.52454187e-09
2.64998967e-09
2.77424928e-09
2.89712971e-09
3.01815149e-09
3.13798647e-09
3.25433467e-09
3.36636871e-09
3.47470193e-09
3.57924982e-09
3.68000136e-09
3.77553485e-09
3.86622982e-09
3.95227811e-09
4.03426513e-09
4.11180361e-09
4.18404579e-09
4.25269659e-09
4.31832242e-09
4.3808692e-09
4.44032923e-09
4.49657553e-09
4.54974679e-09
4.59976626e-09
4.64652928e-09
4.6899177e-09
4.72998908e-09
4.7670485e-09
4.80149093e-09
4.8337087e-09
4.86405787e-09
4.89281436e-09
4.92012955e-09
4.9460277e-09
4.9704473e-09
4.99330944e-09
5.01454715e-09
5.03376083e-09
5.05092366e-09
5.06602827e-09
5.07903623e-09
5.0899501e-09
5.09881922e-09
5.10573133e-09
5.11080181e-09
5.11416306e-09
5.11595372e-09
5.11630736e-09
5.11534064e-09
5.11314104e-09
5.10975557e-09
5.10518376e-09
5.09938093e-09
5.09228039e-09
5.08383111e-09
5.07387112e-09
5.06254431e-09
5.04995699e-09
5.03629516e-09
5.02179669e-09
5.00671716e-09
4.99130127e-09
4.97576573e-09
4.96029912e-09
4.94508383e-09
4.93035413e-09
4.91652498e-09
4.904478e-09
4.89619797e-09
5.488265e-13
1.71848845e-12
3.48331814e-12
6.21921383e-12
1.06170182e-11
2.29721887e-11
5.85241149e-11
1.42726399e-10
3.10567357e-10
6.05855252e-10
1.07822419e-09
1.78547025e-09
2.79222672e-09
4.17520149e-09
6.01877688e-09
8.41738208e-09
1.14695759e-08
1.52726842e-08
1.99257543e-08
2.55225684e-08
3.21645528e-08
3.99556081e-08
4.90084073e-08
5.94421463e-08
7.13700267e-08
8.49160343e-08
1.00165309e-07
1.17215723e-07
1.3614166e-07
1.57027399e-07
1.79948733e-07
2.05001085e-07
2.3227647e-07
2.61880416e-07
2.93901492e-07
3.28428269e-07
3.65541996e-07
4.0532684e-07
4.47900186e-07
4.93373573e-07
5.41911751e-07
5.93643825e-07
6.48736691e-07
7.07286573e-07
7.6937463e-07
8.3503213e-07
9.04276436e-07
9.77135273e-07
1.05366494e-06
1.13396119e-06
1.21814377e-06
1.30635501e-06
1.39872709e-06
1.49537671e-06
1.59640247e-06
1.7019084e-06
1.81202712e-06
1.92695211e-06
2.04694386e-06
2.17232275e-06
2.30344154e-06
2.44066335e-06
2.58431264e-06
2.73470564e-06
2.89205591e-06
3.05652398e-06
3.22826349e-06
3.40731027e-06
3.59364901e-06
3.78717327e-06
3.98774678e-06
4.1952058e-06
4.40942289e-06
4.63037508e-06
4.85805465e-06
5.09262722e-06
5.33420839e-06
5.58290763e-06
5.8387238e-06
6.10157065e-06
6.37120349e-06
6.64732485e-06
6.92963907e-06
7.21790002e-06
7.51197471e-06
7.81188766e-06
8.11779277e-06
8.42994158e-06
8.74856544e-06
9.07385704e-06
9.40588931e-06
9.7445827e-06
1.00897114e-05
1.04409511e-05
1.07979518e-05
1.11604082e-05
1.15281409e-05
1.19011766e-05
1.22797765e-05
1.26644969e-05
1.30560476e-05
1.34553148e-05
1.38633098e-05
1.42811468e-05
1.47099367e-05
1.51509348e-05
1.56053727e-05
1.60745146e-05
1.65598229e-05
1.70628813e-05
1.75854854e-05
1.81297609e-05
1.86981899e-05
1.92937416e-05
1.99199948e-05
2.05812864e-05
2.12828658e-05
2.20310778e-05
2.28335434e-05
2.3699304e-05
2.46388598e-05
2.5664032e-05
2.67874576e-05
2.8021517e-05
2.93762776e-05
3.08565958e-05
3.2458494e-05
3.41655918e-05
3.59476902e-05
3.77622205e-05
3.95577802e-05
4.12781403e-05
4.28663231e-05
4.42658203e-05
4.54199643e-05
4.62710657e-05
4.67564727e-05
4.68011425e-05
4.6311385e-05
4.51423575e-05
4.30928627e-05
3.99143461e-05
3.5405962e-05
2.96935782e-05
2.34916611e-05
1.77394964e-05
1.29969142e-05
9.36491547e-06
6.70543113e-06
4.78876984e-06
3.42239268e-06
2.45214558e-06
1.76284354e-06
1.2718205e-06
9.20927914e-07
6.69292874e-07
4.88163381e-07
3.57292822e-07
2.62388235e-07
1.93324246e-07
1.42896558e-07
1.05959903e-07
7.88240703e-08
5.88317726e-08
4.40623812e-08
3.31227178e-08
2.49994118e-08
1.89530147e-08
1.4442079e-08
1.10690537e-08
8.54131394e-09
6.6429963e-09
5.21458611e-09
4.13810028e-09
3.3255691e-09
2.71162272e-09
2.24831705e-09
1.89971869e-09
1.63904553e-09
1.44635086e-09
1.30676647e-09
1.20919589e-09
1.14534586e-09
1.10900505e-09
1.09549529e-09
1.10125898e-09
1.12356886e-09
1.1603184e-09
1.20981551e-09
1.27064814e-09
1.34160803e-09
1.4218225e-09
1.51042652e-09
1.60641085e-09
1.70876811e-09
1.81684021e-09
1.93022148e-09
2.04778597e-09
2.16811801e-09
2.2903084e-09
2.41389834e-09
2.53888757e-09
2.66397598e-09
2.78783857e-09
2.91022872e-09
3.0307585e-09
3.15013327e-09
3.26602656e-09
3.37755374e-09
3.48540984e-09
3.58951289e-09
3.68983313e-09
3.78497394e-09
3.87523119e-09
3.96085411e-09
4.04244022e-09
4.11962104e-09
4.19157997e-09
4.25988574e-09
4.32503367e-09
4.38715604e-09
4.44621477e-09
4.50207425e-09
4.55487218e-09
4.60454581e-09
4.65098916e-09
4.694092e-09
4.73391412e-09
4.77075645e-09
4.80500699e-09
4.83704623e-09
4.86721772e-09
4.89578797e-09
4.92290401e-09
4.94858943e-09
4.97278541e-09
4.99542081e-09
5.01645965e-09
5.03542967e-09
5.05236916e-09
5.06726879e-09
5.0800869e-09
5.09082563e-09
5.09953452e-09
5.10630076e-09
5.11123859e-09
5.11447884e-09
5.11615837e-09
5.11640897e-09
5.11534558e-09
5.11305419e-09
5.10958069e-09
5.10492401e-09
5.09903957e-09
5.09186095e-09
5.08333128e-09
5.0733168e-09
5.06194065e-09
5.04931239e-09
5.03561908e-09
5.02109752e-09
5.00600151e-09
4.99057382e-09
4.97502942e-09
4.9595554e-09
4.94433314e-09
4.92959632e-09
4.91575985e-09
4.90370591e-09
4.8954207e-09
2.20548339e-11
5.45523797e-11
9.72247801e-11
1.51742972e-10
2.36397051e-10
6.28886949e-10
1.72828001e-09
3.92769249e-09
7.53660305e-09
1.27585541e-08
1.96900113e-08
2.84415931e-08
3.91601058e-08
5.20398025e-08
6.72338528e-08
8.48523616e-08
1.04872264e-07
1.27182123e-07
1.51646919e-07
1.78177185e-07
2.06805696e-07
2.37622379e-07
2.70772486e-07
3.06311887e-07
3.44247734e-07
3.84433335e-07
4.26665346e-07
4.70787057e-07
5.1676907e-07
5.64776405e-07
6.15089365e-07
6.68020235e-07
7.2380506e-07
7.82539218e-07
8.44153443e-07
9.08490106e-07
9.75415011e-07
1.04494624e-06
1.11727423e-06
1.19268609e-06
1.27149224e-06
1.35384607e-06
1.43973872e-06
1.52889423e-06
1.62091839e-06
1.71539194e-06
1.81204576e-06
1.9108382e-06
2.01193021e-06
2.11557377e-06
2.22198712e-06
2.33125903e-06
2.44330318e-06
2.55791949e-06
2.67489239e-06
2.79413729e-06
2.91578739e-06
3.0402151e-06
3.16796083e-06
3.29960867e-06
3.43569335e-06
3.57661154e-06
3.72261777e-06
3.87383151e-06
4.03025896e-06
4.19182479e-06
4.35841267e-06
4.52982374e-06
4.70585741e-06
4.88634317e-06
5.07124832e-06
5.26073299e-06
5.45520435e-06
5.65527199e-06
5.86162456e-06
6.07493119e-06
6.2956904e-06
6.52410345e-06
6.76006473e-06
7.00321398e-06
7.25309007e-06
7.50919155e-06
7.77114961e-06
8.03886124e-06
8.31245325e-06
8.59231724e-06
8.87892575e-06
9.17276131e-06
9.47417336e-06
9.78330054e-06
1.01000511e-05
1.04241127e-05
1.07550203e-05
1.10922735e-05
1.14354414e-05
1.17842378e-05
1.21386073e-05
1.24987824e-05
1.28652676e-05
1.32388437e-05
1.36204134e-05
1.40110144e-05
1.44117548e-05
1.48237762e-05
1.52481964e-05
1.56861966e-05
1.61389511e-05
1.66076969e-05
1.70938079e-05
1.75988578e-05
1.81246641e-05
1.86733703e-05
1.92475246e-05
1.98501782e-05
2.04850116e-05
2.1156479e-05
2.18699348e-05
2.26317928e-05
2.34496684e-05
2.43324603e-05
2.52902914e-05
2.63342685e-05
2.74758296e-05
2.87255195e-05
3.00907677e-05
3.15730623e-05
3.3164664e-05
3.48454635e-05
3.65824169e-05
3.83315662e-05
4.00414671e-05
4.16566979e-05
4.31217899e-05
4.43812178e-05
4.53782948e-05
4.60546403e-05
4.63459203e-05
4.61729265e-05
4.54268908e-05
4.39623913e-05
4.1583478e-05
3.806994e-05
3.33196898e-05
2.76147979e-05
2.17140614e-05
1.63992691e-05
1.20649775e-05
8.74574321e-06
6.29801958e-06
4.52551343e-06
3.25187409e-06
2.34099756e-06
1.68973026e-06
1.22327085e-06
8.88408476e-07
6.47337002e-07
4.73227893e-07
3.47060786e-07
2.55334209e-07
1.88434055e-07
1.39490187e-07
1.03577016e-07
7.71511505e-08
5.7653919e-08
4.32314118e-08
3.25359434e-08
2.45851382e-08
1.86610244e-08
1.42370713e-08
1.0926114e-08
8.4427967e-09
6.57636883e-09
5.17093413e-09
4.11112759e-09
3.31058054e-09
2.7054583e-09
2.24869822e-09
1.90499899e-09
1.6480551e-09
1.45825736e-09
1.32097593e-09
1.22528177e-09
1.16299784e-09
1.12799105e-09
1.11563341e-09
1.12239814e-09
1.14557695e-09
1.18307673e-09
1.23321351e-09
1.29456864e-09
1.36592318e-09
1.44638777e-09
1.53514051e-09
1.63117035e-09
1.73347819e-09
1.84133065e-09
1.95435605e-09
2.07155203e-09
2.19153905e-09
2.31341804e-09
2.43640945e-09
2.56062037e-09
2.68501186e-09
2.80838767e-09
2.93025925e-09
3.04998742e-09
3.16848225e-09
3.28354661e-09
3.39447587e-09
3.5017852e-09
3.60512958e-09
3.7046509e-09
3.79913161e-09
3.88887959e-09
3.97395407e-09
4.05486518e-09
4.13139982e-09
4.20302222e-09
4.27079833e-09
4.33525465e-09
4.39670641e-09
4.45512198e-09
4.51040277e-09
4.56266742e-09
4.61182009e-09
4.65776261e-09
4.70041997e-09
4.73986198e-09
4.77637406e-09
4.81032675e-09
4.8420876e-09
4.8719856e-09
4.90027268e-09
4.92708674e-09
4.95244972e-09
4.97630744e-09
4.99860011e-09
5.01934523e-09
5.03793993e-09
5.05454434e-09
5.06913593e-09
5.08166802e-09
5.09214259e-09
5.10060963e-09
5.1071556e-09
5.11189302e-09
5.11495034e-09
5.11646179e-09
5.11655649e-09
5.11534683e-09
5.11291656e-09
5.10930989e-09
5.10452491e-09
5.09851716e-09
5.09122035e-09
5.08256912e-09
5.07247445e-09
5.06102252e-09
5.04833227e-09
5.03459138e-09
5.02003487e-09
5.00491385e-09
4.98946822e-09
4.9739103e-09
4.95842502e-09
4.94319212e-09
4.92844443e-09
4.91459683e-09
4.9025324e-09
4.89423961e-09
8.56327703e-10
1.32652109e-09
1.73400557e-09
2.14224199e-09
3.14116001e-09
1.32575853e-08
3.54620718e-08
6.85073367e-08
1.09275261e-07
1.5435359e-07
2.01072355e-07
2.49799973e-07
3.01909355e-07
3.58238667e-07
4.18406992e-07
4.81078858e-07
5.444482e-07
6.06849225e-07
6.67924471e-07
7.28910842e-07
7.91694302e-07
8.57647033e-07
9.27106843e-07
9.99278736e-07
1.07270264e-06
1.14563268e-06
1.2171858e-06
1.28787915e-06
1.35964286e-06
1.43477038e-06
1.51491184e-06
1.60049713e-06
1.69073166e-06
1.78398289e-06
1.87843008e-06
1.97293046e-06
2.06760598e-06
2.16378369e-06
2.26321106e-06
2.36720806e-06
2.47610373e-06
2.58909126e-06
2.70456901e-06
2.82060511e-06
2.9357037e-06
3.04931994e-06
3.16201724e-06
3.27508062e-06
3.38985032e-06
3.50714369e-06
3.62697853e-06
3.74865519e-06
3.87107441e-06
3.99324469e-06
4.11470349e-06
4.23579673e-06
4.35756763e-06
4.48141906e-06
4.60866119e-06
4.7401606e-06
4.87626636e-06
5.01683543e-06
5.16149491e-06
5.30967961e-06
5.46091827e-06
5.61468036e-06
5.77044129e-06
5.92775107e-06
6.08635173e-06
6.24628574e-06
6.40809133e-06
6.57280595e-06
6.74187528e-06
6.91686996e-06
7.09917674e-06
7.28971893e-06
7.48886866e-06
7.69631791e-06
7.91131396e-06
8.13291372e-06
8.36026856e-06
8.5928214e-06
8.83046351e-06
9.07359821e-06
9.32297331e-06
9.57958518e-06
9.84429989e-06
1.01177463e-05
1.04001937e-05
1.06914965e-05
1.09911712e-05
1.12985116e-05
1.16127512e-05
1.19332436e-05
1.22595811e-05
1.25916533e-05
1.29297002e-05
1.32743372e-05
1.36263918e-05
1.39869453e-05
1.4357155e-05
1.47381981e-05
1.51312408e-05
1.55374035e-05
1.59577672e-05
1.63933722e-05
1.6845321e-05
1.73147889e-05
1.7803079e-05
1.83117481e-05
1.88426465e-05
1.9397965e-05
1.99803286e-05
2.05928924e-05
2.12394558e-05
2.19246029e-05
2.26537713e-05
2.34333924e-05
2.42709755e-05
2.5175103e-05
2.61552266e-05
2.72213019e-05
2.8382933e-05
2.96479825e-05
3.10201747e-05
3.24965357e-05
3.40646734e-05
3.57000672e-05
3.73665679e-05
3.90189574e-05
4.0606127e-05
4.20736632e-05
4.33679784e-05
4.44342791e-05
4.52152477e-05
4.56510423e-05
4.56750941e-05
4.51914044e-05
4.40926365e-05
4.22302601e-05
3.94218597e-05
3.55123325e-05
3.05539663e-05
2.49960042e-05
1.95565189e-05
1.47973058e-05
1.09537264e-05
8.0034495e-06
5.80856718e-06
4.20427221e-06
3.04156392e-06
2.20265686e-06
1.5980838e-06
1.16203393e-06
8.47179831e-07
6.19369772e-07
4.5412437e-07
3.33927617e-07
2.46253524e-07
1.82122999e-07
1.35084405e-07
1.00489278e-07
7.49799332e-08
5.61231511e-08
4.2150231e-08
3.17717684e-08
2.40452794e-08
1.82803882e-08
1.39698277e-08
1.07398706e-08
8.31458226e-09
6.48984919e-09
5.11447826e-09
4.07653565e-09
3.29163638e-09
2.69814026e-09
2.24997521e-09
1.91271617e-09
1.66067914e-09
1.47469563e-09
1.34044727e-09
1.24722466e-09
1.1870028e-09
1.15374954e-09
1.14290237e-09
1.15097735e-09
1.17529108e-09
1.21376221e-09
1.26471818e-09
1.32674117e-09
1.39860819e-09
1.47937939e-09
1.56827321e-09
1.66430719e-09
1.76657994e-09
1.87416678e-09
1.98664785e-09
2.10323533e-09
2.22274927e-09
2.34437598e-09
2.46658766e-09
2.58962566e-09
2.71291927e-09
2.83570856e-09
2.95711469e-09
3.0757499e-09
3.19291019e-09
3.3067117e-09
3.41697298e-09
3.52371493e-09
3.62598668e-09
3.72432057e-09
3.8178403e-09
3.90704188e-09
3.99147747e-09
4.07143799e-09
4.14702498e-09
4.21799081e-09
4.28521627e-09
4.34890314e-09
4.4094476e-09
4.46698361e-09
4.52150361e-09
4.57309053e-09
4.62155308e-09
4.66681519e-09
4.708868e-09
4.74780045e-09
4.78386821e-09
4.81741371e-09
4.84879218e-09
4.87831772e-09
4.90622289e-09
4.93263132e-09
4.95756258e-09
4.98096908e-09
5.00280435e-09
5.02317381e-09
5.04125222e-09
5.05741733e-09
5.07160267e-09
5.08375614e-09
5.09388054e-09
5.10202674e-09
5.10828033e-09
5.11275154e-09
5.11556571e-09
5.11685362e-09
5.11674088e-09
5.11533653e-09
5.11272143e-09
5.10893759e-09
5.10398201e-09
5.09781049e-09
5.09035757e-09
5.08155679e-09
5.07134491e-09
5.0597912e-09
5.04701852e-09
5.03321438e-09
5.01861139e-09
5.00345704e-09
4.98798739e-09
4.97241132e-09
4.95691093e-09
4.94166374e-09
4.92690143e-09
4.91303887e-09
4.90096047e-09
4.89265765e-09
2.03023294e-08
1.58576473e-08
1.33579592e-08
1.28495457e-08
2.39498207e-08
1.98167544e-07
4.12285174e-07
5.99889081e-07
7.4123226e-07
8.3759498e-07
9.02190729e-07
9.74236646e-07
1.06630479e-06
1.17089919e-06
1.27507949e-06
1.36819593e-06
1.44442916e-06
1.50402307e-06
1.55814802e-06
1.62137723e-06
1.7002013e-06
1.79186217e-06
1.88865131e-06
1.98206096e-06
2.06579837e-06
2.1373664e-06
2.20072433e-06
2.2659833e-06
2.34315607e-06
2.43672637e-06
2.54480446e-06
2.66123495e-06
2.77857521e-06
2.89059421e-06
2.99430353e-06
3.09152581e-06
3.18822117e-06
3.29114707e-06
3.40431196e-06
3.52759644e-06
3.65743182e-06
3.78850528e-06
3.91573319e-06
4.03575716e-06
4.14819594e-06
4.25570761e-06
4.36263687e-06
4.47289262e-06
4.58837591e-06
4.70857346e-06
4.83116684e-06
4.9531607e-06
5.07202546e-06
5.18668512e-06
5.29790731e-06
5.40809761e-06
5.52029098e-06
5.63708681e-06
5.75988612e-06
5.88873717e-06
6.02275541e-06
6.16060009e-06
6.30104095e-06
6.44297663e-06
6.58562508e-06
6.72824301e-06
6.8701674e-06
7.01093668e-06
7.15058821e-06
7.28980985e-06
7.43016821e-06
7.57386481e-06
7.7233827e-06
7.88090701e-06
8.04786923e-06
8.22470106e-06
8.41093027e-06
8.60526465e-06
8.8061385e-06
9.01215396e-06
9.22240218e-06
9.43667496e-06
9.65550814e-06
9.88005758e-06
1.0111756e-05
1.03520464e-05
1.0601933e-05
1.0861904e-05
1.11318757e-05
1.14112488e-05
1.16991014e-05
1.19943948e-05
1.22962064e-05
1.26039062e-05
1.291727e-05
1.32364953e-05
1.35621655e-05
1.38952594e-05
1.42368968e-05
1.45883614e-05
1.49509534e-05
1.53258993e-05
1.57143403e-05
1.61173223e-05
1.6535839e-05
1.69708271e-05
1.74232925e-05
1.78943544e-05
1.83852885e-05
1.88976509e-05
1.94333284e-05
1.99945489e-05
2.05839908e-05
2.12048794e-05
2.18610855e-05
2.25572662e-05
2.32988561e-05
2.40922203e-05
2.49446744e-05
2.58644083e-05
2.68601371e-05
2.79406596e-05
2.91138239e-05
3.0385075e-05
3.17549522e-05
3.32169628e-05
3.47553706e-05
3.63426028e-05
3.79406201e-05
3.95036978e-05
4.09812344e-05
4.23195085e-05
4.34663067e-05
4.43667066e-05
4.49623247e-05
4.51915475e-05
4.49801757e-05
4.42294701e-05
4.28299987e-05
4.06396512e-05
3.75056474e-05
3.33516452e-05
2.83595606e-05
2.30376649e-05
1.79988628e-05
1.36574329e-05
1.01617583e-05
7.46924721e-06
5.45297119e-06
3.96859428e-06
2.8854308e-06
2.09881203e-06
1.52848181e-06
1.11514435e-06
8.1540232e-07
5.97691138e-07
4.3924139e-07
3.23652568e-07
2.39123197e-07
1.77151892e-07
1.31604527e-07
9.80447673e-08
7.32575766e-08
5.49067804e-08
4.12899005e-08
3.11629947e-08
2.36148693e-08
1.79768028e-08
1.37567002e-08
1.05914475e-08
8.21257134e-09
6.42122438e-09
5.06994951e-09
4.04958468e-09
3.27724418e-09
2.69308487e-09
2.25184025e-09
1.91977334e-09
1.67169642e-09
1.48879401e-09
1.35699721e-09
1.2657717e-09
1.20721356e-09
1.17537209e-09
1.1657384e-09
1.17486348e-09
1.20008354e-09
1.23932459e-09
1.29091907e-09
1.35345615e-09
1.42571345e-09
1.50672891e-09
1.59572277e-09
1.69173361e-09
1.79388494e-09
1.90125119e-09
2.01334498e-09
2.12948874e-09
2.24851779e-09
2.36971477e-09
2.49134416e-09
2.61356526e-09
2.73609086e-09
2.85819695e-09
2.97895756e-09
3.09680395e-09
3.21306797e-09
3.3259486e-09
3.43541345e-09
3.54147294e-09
3.64298117e-09
3.7405158e-09
3.83329671e-09
3.92185115e-09
4.00566104e-09
4.08494149e-09
4.159858e-09
4.23024257e-09
4.29691581e-09
4.35998145e-09
4.41985294e-09
4.47672134e-09
4.53062138e-09
4.58162373e-09
4.62952396e-09
4.67425057e-09
4.71581887e-09
4.75432856e-09
4.79002382e-09
4.82323141e-09
4.85429204e-09
4.88350471e-09
4.91108749e-09
4.93715609e-09
4.96172922e-09
4.98476376e-09
5.00622067e-09
5.02630104e-09
5.0439329e-09
5.05974793e-09
5.07360403e-09
5.08544922e-09
5.09528811e-09
5.10317257e-09
5.10918748e-09
5.11344119e-09
5.11605655e-09
5.11716154e-09
5.11687894e-09
5.11531513e-09
5.11254864e-09
5.10861975e-09
5.1035246e-09
5.09721927e-09
5.08963942e-09
5.08072031e-09
5.07040968e-09
5.05877238e-09
5.04593234e-09
5.03207655e-09
5.01743551e-09
5.00225381e-09
4.98676439e-09
4.97117329e-09
4.95566028e-09
4.94040117e-09
4.92562672e-09
4.91175176e-09
4.89966177e-09
4.89135067e-09
1.89897976e-14
2.49573064e-14
2.55125099e-14
2.41909018e-14
2.22900395e-14
2.02699322e-14
1.8310818e-14
1.64964319e-14
1.48551665e-14
1.34010402e-14
1.2130501e-14
1.10294253e-14
1.00778323e-14
9.2545121e-15
8.54166006e-15
7.92450206e-15
7.38896572e-15
6.92187015e-15
6.51343195e-15
6.15592848e-15
5.84191483e-15
5.56485839e-15
5.31997092e-15
5.10333445e-15
4.91108275e-15
4.73988438e-15
4.58724146e-15
4.450948e-15
4.32920045e-15
4.22035541e-15
4.12293224e-15
4.03565522e-15
3.95776561e-15
3.88896446e-15
3.84972509e-15
4.93364988e-15
6.30931903e-14
2.92437651e-12
1.31737941e-10
4.47437169e-09
1.14153252e-14
1.79831248e-14
2.09233984e-14
2.19282576e-14
2.18796539e-14
2.12443752e-14
2.02475228e-14
1.90362918e-14
1.77173468e-14
1.63836786e-14
1.50970525e-14
1.38897396e-14
1.27783014e-14
1.17690359e-14
1.08605518e-14
1.00476837e-14
9.323625e-15
8.6795181e-15
8.10661697e-15
7.59745032e-15
7.14511719e-15
6.74253985e-15
6.38370764e-15
6.06380972e-15
5.77846764e-15
5.52334471e-15
5.29497401e-15
5.09036906e-15
4.90693214e-15
4.74245158e-15
4.59494151e-15
4.46246772e-15
4.34375346e-15
4.2378368e-15
4.14825193e-15
4.29411798e-15
1.53876661e-14
5.20812747e-13
2.01641875e-11
5.42213019e-10
6.76352614e-15
1.21297159e-14
1.55639266e-14
1.75781968e-14
1.86208832e-14
1.90186671e-14
1.89749862e-14
1.86083356e-14
1.80041312e-14
1.72393881e-14
1.63770154e-14
1.54635666e-14
1.45354908e-14
1.36219844e-14
1.27423516e-14
1.19080154e-14
1.11260562e-14
1.04006537e-14
9.73215986e-15
9.11882265e-15
8.55875687e-15
8.0493308e-15
7.58667348e-15
7.16695314e-15
6.78697335e-15
6.44343664e-15
6.13308045e-15
5.85266204e-15
5.59915979e-15
5.37004137e-15
5.16328022e-15
4.97677726e-15
4.80863368e-15
4.65724696e-15
4.5219908e-15
4.43179264e-15
5.73585297e-15
6.28234803e-14
1.97987959e-12
4.64818055e-11
5.617476e-15
1.00428855e-14
1.32508656e-14
1.54052358e-14
1.67356698e-14
1.74534092e-14
1.77261015e-14
1.7673315e-14
1.73802858e-14
1.69108912e-14
1.63153256e-14
1.56330281e-14
1.48956945e-14
1.41302726e-14
1.33584535e-14
1.25963715e-14
1.18561952e-14
1.11473297e-14
1.04758459e-14
9.84506584e-15
9.25686789e-15
8.71185514e-15
8.20920572e-15
7.74735429e-15
7.32433869e-15
6.93812174e-15
6.58634556e-15
6.2664068e-15