/*--------------------------------*- C++ -*----------------------------------*\
  =========                 |
  \\      /  F ield         | OpenFOAM: The Open Source CFD Toolbox
   \\    /   O peration     | Website:  https://openfoam.org
    \\  /    A nd           | Version:  6
     \\/     M anipulation  |
\*---------------------------------------------------------------------------*/
FoamFile
{
    version     2.0;
    format      ascii;
    class       volScalarField;
    location    "25000";
    object      HCNN;
}
// * * * * * * * * * * * * * * * * * * * * * * * * * * * * * * * * * * * * * //

dimensions      [0 0 0 0 0 0 0];

internalField   nonuniform List<scalar> 
44870
(
9.53692132e-60
1.81881111e-59
2.39012134e-59
1.76494772e-59
2.20893655e-59
2.65921937e-59
2.88450429e-59
4.56223108e-59
4.56958017e-59
4.45418221e-59
5.83497334e-59
5.265482e-59
4.32800747e-59
3.46171275e-59
4.64770981e-59
4.13216913e-59
3.3121185e-59
3.05284234e-59
2.62554995e-59
4.96938538e-59
4.27598849e-59
3.84682747e-59
3.95716013e-59
3.43432432e-59
4.16423974e-59
6.72619281e-59
6.97014133e-57
2.07091932e-54
6.33913911e-52
1.98518498e-49
6.3527263e-47
2.07138256e-44
6.86407369e-42
2.29964602e-39
7.74341635e-37
2.59240661e-34
8.50178911e-32
2.65793564e-29
7.51844019e-27
1.75203961e-24
1.79830347e-59
1.3819334e-59
2.42197871e-59
2.11318983e-59
2.49797029e-59
3.18731606e-59
3.37840003e-59
3.13941679e-59
3.27991509e-59
3.41552144e-59
6.01994805e-59
5.62146374e-59
5.31952322e-59
3.68524921e-59
2.73691997e-59
3.64650935e-59
3.6646921e-59
2.69939137e-59
2.77403963e-59
3.29922831e-59
4.00604045e-59
4.01431988e-59
3.01550984e-59
5.54248594e-59
4.27349442e-59
3.80965055e-59
2.26328044e-57
8.23224708e-55
3.18678164e-52
1.28409857e-49
5.37439224e-47
2.32799013e-44
1.04074244e-41
4.77553695e-39
2.23675694e-36
1.05817553e-33
4.98825817e-31
2.29007354e-28
9.76091645e-26
3.6420104e-23
3.19215322e-59
5.29254268e-59
6.84165935e-59
4.76624654e-59
4.05533001e-59
4.6949788e-59
5.86972905e-59
4.80840464e-59
5.26525446e-59
4.05087709e-59
3.72816898e-59
4.43303994e-59
4.17740539e-59
3.39532166e-59
3.4216948e-59
3.26917522e-59
3.96679026e-59
2.34863428e-59
3.97299173e-59
3.20175155e-59
3.55164559e-59
2.3459772e-59
4.34222846e-59
4.05833891e-59
3.32418396e-59
2.82382924e-59
9.16865309e-59
3.47828028e-56
2.27424388e-53
1.68265135e-50
1.33324902e-47
1.10044686e-44
9.18939943e-42
7.7068704e-39
6.36112058e-36
5.16370082e-33
4.02643273e-30
3.01569434e-27
2.05576364e-24
1.26960283e-21
2.63888054e-59
3.97340351e-59
2.19045793e-59
2.74366821e-59
5.45126528e-59
2.67071448e-59
1.65484714e-59
1.89527553e-59
1.59632943e-59
9.06887606e-60
1.23417834e-59
2.64724695e-59
1.98032541e-59
1.70077648e-59
1.10652977e-59
2.39719607e-59
6.09097537e-59
5.38586462e-59
5.1405369e-59
7.00212261e-59
6.78942517e-59
2.82394182e-59
2.17936568e-59
2.04160403e-59
2.9617316e-59
1.35119322e-59
1.37845247e-58
8.39544092e-56
9.20902784e-53
1.01369272e-49
1.10618387e-46
1.19619137e-43
1.26472686e-40
1.30842606e-37
1.30620731e-34
1.25971886e-31
1.15483994e-28
1.00502007e-25
8.03111487e-23
5.77762149e-20
5.29986226e-59
2.76563959e-59
2.04965969e-59
9.4642563e-60
4.0187863e-60
5.99914423e-59
1.28763625e-59
5.85123824e-60
2.53099732e-59
1.52791829e-59
2.41862173e-59
1.10877369e-58
5.37674511e-59
1.17556833e-59
8.48956129e-59
7.16556817e-59
7.59005087e-59
1.74494694e-59
4.43783999e-60
1.43354231e-60
9.01640043e-61
5.93802605e-61
3.67402476e-61
4.24041538e-60
9.95780639e-59
1.02146594e-58
2.30394098e-57
2.25506363e-54
2.23797484e-51
2.2199905e-48
2.20236956e-45
2.18418636e-42
2.16663518e-39
2.14855567e-36
2.13152866e-33
2.11458073e-30
2.09837416e-27
2.08262314e-24
2.06731856e-21
2.06551378e-18
1.44040354e-22
3.09636073e-22
4.17235632e-22
4.60101547e-22
4.61606954e-22
1.16787521e-21
3.22854315e-21
6.47421417e-21
1.00758345e-20
1.31977723e-20
1.52463688e-20
1.6386905e-20
1.73032776e-20
1.87572848e-20
2.09703964e-20
2.36287176e-20
2.61733735e-20
2.79856497e-20
2.89079334e-20
2.94647574e-20
3.10911659e-20
3.5284787e-20
4.2947046e-20
5.40288436e-20
6.76090803e-20
8.23525447e-20
9.66815794e-20
1.11278013e-19
1.28923937e-19
1.57803123e-19
2.07626121e-19
2.88991803e-19
4.10710048e-19
5.75378632e-19
7.84833281e-19
1.03239778e-18
1.32312576e-18
1.67174299e-18
2.13050854e-18
2.77824581e-18
3.72618431e-18
5.09039335e-18
6.97782025e-18
9.46069907e-18
1.2595165e-17
1.64084917e-17
2.10179945e-17
2.67550586e-17
3.4273124e-17
4.45686483e-17
5.88747304e-17
7.849077e-17
1.04559734e-16
1.37965025e-16
1.79344448e-16
2.29536089e-16
2.90335158e-16
3.65579199e-16
4.61872507e-16
5.88621534e-16
7.57058318e-16
9.78598362e-16
1.26359981e-15
1.6209737e-15
2.06015353e-15
2.59234462e-15
3.23366821e-15
4.0031775e-15
4.92296453e-15
6.01293735e-15
7.29307603e-15
8.78749903e-15
1.05353989e-14
1.26159084e-14
1.51442368e-14
1.83064127e-14
2.22862478e-14
2.72903764e-14
3.34728715e-14
4.09257958e-14
4.96616045e-14
5.96375497e-14
7.08161335e-14
8.32235544e-14
9.70412662e-14
1.12653629e-13
1.30730641e-13
1.52131891e-13
1.77894969e-13
2.09097495e-13
2.46704068e-13
2.91508041e-13
3.44020058e-13
4.04554564e-13
4.7325855e-13
5.50383523e-13
6.36473075e-13
7.32289607e-13
8.39369734e-13
9.59941332e-13
1.09702891e-12
1.25428557e-12
1.43611318e-12
1.64772497e-12
1.89494016e-12
2.18458083e-12
2.52463886e-12
2.92487997e-12
3.3984294e-12
3.96095126e-12
4.63107832e-12
5.4332178e-12
6.4010871e-12
7.58638201e-12
9.0692589e-12
1.10456174e-11
1.37529176e-11
1.71653317e-11
2.1229251e-11
2.67459914e-11
3.4549403e-11
4.59092585e-11
6.26077521e-11
8.6707786e-11
1.1977258e-10
1.61583164e-10
2.09238992e-10
2.57554792e-10
3.0083132e-10
3.34742334e-10
3.57232791e-10
3.68342116e-10
3.69643294e-10
3.63391435e-10
3.51812036e-10
3.3696058e-10
3.20434567e-10
3.03428837e-10
2.86568946e-10
2.70044804e-10
2.53731462e-10
2.34636543e-10
2.05424858e-10
1.60822721e-10
1.13535011e-10
7.76235053e-11
5.36202094e-11
3.74981341e-11
2.64712753e-11
1.88260686e-11
1.34706547e-11
9.68935928e-12
7.0069448e-12
5.11692913e-12
3.73572623e-12
2.73281155e-12
2.00769865e-12
1.48141436e-12
1.09353231e-12
8.0794911e-13
5.97907602e-13
4.43354175e-13
3.29471916e-13
2.45384584e-13
1.83099058e-13
1.36769036e-13
1.0228601e-13
7.66061587e-14
5.74684558e-14
4.31901725e-14
3.25246964e-14
2.4546293e-14
1.85668848e-14
1.40739465e-14
1.06893806e-14
8.13276816e-15
6.1985843e-15
4.73281456e-15
3.61999536e-15
2.77361991e-15
2.12875908e-15
1.63657754e-15
1.26027762e-15
9.72095751e-16
7.51048261e-16
5.8123882e-16
4.50616643e-16
3.49958819e-16
2.72241364e-16
2.12140915e-16
1.6556128e-16
1.29415619e-16
1.01296901e-16
7.94316061e-17
6.23960654e-17
4.90739682e-17
3.86178305e-17
3.04180807e-17
2.40002477e-17
1.89535736e-17
1.49781643e-17
1.18273459e-17
9.35193301e-18
7.40478064e-18
5.86873972e-18
4.65747857e-18
3.69663239e-18
2.94708746e-18
2.35603273e-18
1.88689979e-18
1.51274104e-18
1.21375683e-18
9.77064064e-19
7.8794928e-19
6.36707841e-19
5.15022917e-19
4.17264731e-19
3.38217991e-19
2.74995686e-19
2.25311154e-19
1.85041451e-19
1.52609449e-19
1.26486197e-19
1.05258815e-19
8.78893309e-20
7.35877021e-20
6.17489443e-20
5.18881995e-20
4.3628808e-20
3.66964892e-20
3.08830037e-20
2.60173913e-20
2.19531944e-20
1.8562276e-20
1.57320314e-20
1.33648966e-20
1.13768653e-20
9.69498371e-21
8.28137376e-21
7.08559784e-21
6.06873485e-21
5.2005727e-21
4.45697982e-21
3.81845552e-21
3.26907268e-21
2.79570047e-21
2.38744718e-21
2.03525352e-21
1.73158065e-21
1.47015647e-21
1.24575293e-21
1.05397671e-21
8.91057322e-22
7.53630272e-22
6.38464317e-22
5.41774329e-22
4.63472173e-22
3.98702339e-22
3.4509812e-22
3.00572966e-22
2.633261e-22
2.31871874e-22
2.05020187e-22
1.81841545e-22
1.61630955e-22
1.438811e-22
1.28279295e-22
1.14759783e-22
1.03688045e-22
9.63651325e-23
4.16098302e-21
6.56951576e-21
6.69732961e-21
5.80231682e-21
4.88877139e-21
3.05292387e-20
8.89652532e-20
1.58275735e-19
2.12520852e-19
2.39961907e-19
2.40189605e-19
2.32984848e-19
2.42915675e-19
2.80606487e-19
3.35612952e-19
3.88473599e-19
4.23413037e-19
4.31978863e-19
4.21268751e-19
4.21601289e-19
4.75839616e-19
6.07890679e-19
8.10503163e-19
1.05482502e-18
1.29809596e-18
1.51139443e-18
1.67351201e-18
1.8327602e-18
2.10951617e-18
2.68775182e-18
3.7216437e-18
5.291573e-18
7.36481168e-18
9.81230576e-18
1.24582021e-17
1.51360553e-17
1.79102415e-17
2.11802375e-17
2.57519772e-17
3.25222945e-17
4.22764708e-17
5.53082889e-17
7.14477225e-17
8.99829372e-17
1.10157685e-16
1.31521462e-16
1.55068612e-16
1.8376548e-16
2.22163312e-16
2.75143221e-16
3.46384712e-16
4.37319318e-16
5.46820216e-16
6.71952596e-16
8.0975407e-16
9.60461072e-16
1.13093629e-15
1.33663811e-15
1.59985584e-15
1.94489117e-15
2.39186422e-15
2.95269473e-15
3.63144015e-15
4.42978114e-15
5.35454743e-15
6.42085859e-15
7.65407095e-15
9.07985103e-15
1.0720046e-14
1.25855963e-14
1.46873964e-14
1.70539024e-14
1.97580943e-14
2.29526591e-14
2.68517748e-14
3.17487177e-14
3.78902412e-14
4.54951397e-14
5.46576827e-14
6.53644807e-14
7.74955516e-14
9.09019899e-14
1.0550287e-13
1.21368133e-13
1.38827577e-13
1.58508654e-13
1.81377483e-13
2.08583288e-13
2.41386827e-13
2.80980395e-13
3.28292671e-13
3.8395688e-13
4.48277385e-13
5.21372105e-13
6.03195258e-13
6.93991002e-13
7.94454031e-13
9.05398987e-13
1.02891546e-12
1.16769618e-12
1.32523103e-12
1.50571314e-12
1.71413864e-12
1.9563153e-12
2.23865006e-12
2.56864285e-12
2.95501249e-12
3.40876882e-12
3.94474609e-12
4.5804041e-12
5.33584661e-12
6.23835507e-12
7.3262684e-12
8.65896908e-12
1.03261371e-11
1.25397333e-11
1.55579635e-11
1.93312691e-11
2.37944646e-11
2.98490345e-11
3.83610406e-11
5.06274308e-11
6.8415813e-11
9.36784018e-11
1.2775836e-10
1.70161129e-10
2.17805878e-10
2.65501745e-10
3.07727378e-10
3.40405852e-10
3.61693755e-10
3.7174195e-10
3.72190975e-10
3.65295531e-10
3.53215445e-10
3.37981235e-10
3.21132216e-10
3.03826433e-10
2.86592245e-10
2.69825079e-10
2.53061449e-10
2.3292205e-10
2.01834642e-10
1.56549259e-10
1.10423601e-10
7.58111573e-11
5.25737328e-11
3.68657299e-11
2.60754471e-11
1.85720381e-11
1.33045422e-11
9.57910243e-12
6.93297721e-12
5.06164033e-12
3.69470051e-12
2.70418295e-12
1.98754785e-12
1.46698288e-12
1.08316053e-12
8.00678027e-13
5.92852485e-13
4.39819794e-13
3.26986123e-13
2.43627506e-13
1.81862969e-13
1.35896446e-13
1.0166796e-13
7.61676753e-14
5.71571758e-14
4.2968802e-14
3.23669795e-14
2.44337086e-14
1.84854591e-14
1.40147092e-14
1.06460735e-14
8.10085713e-15
6.1750651e-15
4.71544755e-15
3.60713979e-15
2.76408113e-15
2.12166595e-15
1.63129149e-15
1.25632787e-15
9.69136365e-16
7.48827119e-16
5.79568547e-16
4.49356045e-16
3.49002657e-16
2.71515964e-16
2.1159346e-16
1.65143575e-16
1.2909965e-16
1.01052124e-16
7.92437353e-17
6.22558731e-17
4.89688941e-17
3.85356862e-17
3.03519726e-17
2.39506845e-17
1.89182442e-17
1.49526679e-17
1.1806915e-17
9.33517858e-18
7.39300452e-18
5.86114881e-18
4.65220957e-18
3.6919981e-18
2.94335921e-18
2.35365898e-18
1.88549711e-18
1.51174567e-18
1.21283462e-18
9.76401044e-19
7.8762804e-19
6.36601918e-19
5.14972737e-19
4.17217952e-19
3.38185331e-19
2.74984816e-19
2.25382526e-19
1.85086091e-19
1.52632668e-19
1.26502716e-19
1.05272123e-19
8.78957577e-20
7.35858231e-20
6.17412141e-20
5.18774868e-20
4.36163157e-20
3.66826247e-20
3.0868454e-20
2.60028716e-20
2.19390973e-20
1.8548754e-20
1.57191972e-20
1.3352883e-20
1.13658527e-20
9.68465552e-21
8.27225523e-21
7.07748265e-21
6.06154482e-21
5.19423284e-21
4.45141795e-21
3.81360236e-21
3.26486161e-21
2.79206719e-21
2.38433009e-21
2.03259466e-21
1.72932645e-21
1.46825794e-21
1.24416523e-21
1.05265851e-21
8.89970539e-22
7.52739714e-22
6.37739121e-22
5.41107741e-22
4.6301003e-22
3.98308752e-22
3.44765905e-22
3.0029184e-22
2.63086125e-22
2.31664945e-22
2.04840013e-22
1.81683239e-22
1.61490819e-22
1.43756323e-22
1.28167687e-22
1.14659498e-22
1.03597094e-22
9.62797512e-23
2.3923805e-19
2.62584582e-19
1.91286556e-19
1.22907313e-19
9.47200113e-20
2.2679157e-18
5.77572031e-18
8.42436455e-18
9.26856766e-18
8.63474431e-18
7.21265664e-18
6.52231119e-18
7.55259803e-18
9.76160227e-18
1.18504158e-17
1.2889224e-17
1.26516044e-17
1.14163161e-17
9.95244282e-18
1.00263553e-17
1.28158348e-17
1.78916596e-17
2.37461956e-17
2.8836725e-17
3.21703288e-17
3.35149568e-17
3.33044785e-17
3.40584132e-17
3.97301335e-17
5.35179508e-17
7.58704373e-17
1.04557083e-16
1.35688185e-16
1.65240482e-16
1.90084868e-16
2.09561834e-16
2.28393584e-16
2.56652358e-16
3.05793981e-16
3.82544718e-16
4.86535558e-16
6.09838989e-16
7.41100393e-16
8.67786846e-16
9.82643957e-16
1.08879721e-15
1.20741411e-15
1.37287763e-15
1.61826769e-15
1.9605679e-15
2.39387226e-15
2.8925628e-15
3.4206272e-15
3.94447418e-15
4.44873532e-15
4.95379209e-15
5.52413854e-15
6.25546613e-15
7.2416003e-15
8.54043618e-15
1.01556082e-14
1.20451215e-14
1.41517179e-14
1.64447433e-14
1.89385721e-14
2.16853822e-14
2.47505045e-14
2.81651105e-14
3.19185287e-14
3.59663745e-14
4.02907296e-14
4.49729436e-14
5.02599192e-14
5.65959005e-14
6.45176312e-14
7.45815179e-14
8.71004516e-14
1.02168526e-13
1.19570739e-13
1.38909265e-13
1.59694194e-13
1.81547871e-13
2.04381246e-13
2.28527518e-13
2.54848323e-13
2.84707478e-13
3.19850926e-13
3.6213205e-13
4.13246723e-13
4.74430214e-13
5.46362626e-13
6.29154305e-13
7.22496074e-13
8.2604292e-13
9.3927629e-13
1.06260232e-12
1.19694308e-12
1.34404898e-12
1.50678474e-12
1.68910299e-12
1.89569704e-12
2.13200865e-12
2.40443268e-12
2.72011528e-12
3.08682449e-12
3.51356585e-12
4.01074561e-12
4.59259932e-12
5.27801642e-12
6.08863489e-12
7.04760367e-12
8.18975313e-12
9.56435001e-12
1.12501132e-11
1.33591162e-11
1.61417722e-11
1.98890557e-11
2.44751827e-11
2.98782443e-11
3.71851171e-11
4.73216495e-11
6.16269296e-11
8.18041257e-11
1.09522891e-10
1.45635959e-10
1.89082954e-10
2.36467059e-10
2.8263667e-10
3.22475734e-10
3.52441402e-10
3.71121915e-10
3.78877145e-10
3.77494616e-10
3.69218434e-10
3.5604563e-10
3.39972593e-10
3.22398995e-10
3.04407637e-10
2.86262622e-10
2.68952983e-10
2.51148137e-10
2.2792566e-10
1.93435293e-10
1.47409675e-10
1.03935484e-10
7.20624701e-11
5.03807697e-11
3.5526859e-11
2.52320608e-11
1.80284424e-11
1.29479671e-11
9.34184309e-12
6.77379208e-12
4.9404184e-12
3.60890573e-12
2.64439018e-12
1.94518217e-12
1.43640757e-12
1.06126051e-12
7.85293218e-13
5.82111719e-13
4.32282429e-13
3.21667093e-13
2.39856039e-13
1.79197635e-13
1.3401207e-13
1.00331365e-13
7.52183214e-14
5.648256e-14
4.24886055e-14
3.2024578e-14
2.41885777e-14
1.83078273e-14
1.38854141e-14
1.05515189e-14
8.03111815e-15
6.12367189e-15
4.67749078e-15
3.57903793e-15
2.74322586e-15
2.10615309e-15
1.61972683e-15
1.24768717e-15
9.626651e-16
7.43969126e-16
5.75910921e-16
4.46593752e-16
3.46913469e-16
2.6993531e-16
2.10395406e-16
1.6424466e-16
1.28405878e-16
1.00523237e-16
7.88381643e-17
6.19458638e-17
4.87322633e-17
3.8355958e-17
3.0213674e-17
2.38449147e-17
1.88378885e-17
1.48932554e-17
1.17631724e-17
9.30186587e-18
7.36807882e-18
5.84294425e-18
4.63938325e-18
3.68259436e-18
2.93642611e-18
2.34859637e-18
1.88183073e-18
1.50928352e-18
1.21112006e-18
9.75255516e-19
7.86902233e-19
6.36191762e-19
5.147997e-19
4.17191243e-19
3.38385777e-19
2.75335759e-19
2.25480188e-19
1.85170304e-19
1.52694393e-19
1.2654146e-19
1.0529213e-19
8.7900558e-20
7.35779378e-20
6.17228932e-20
5.18515352e-20
4.35858097e-20
3.66498458e-20
3.08349916e-20
2.59698137e-20
2.19071184e-20
1.85182555e-20
1.56904568e-20
1.33261335e-20
1.13413854e-20
9.66190883e-21
8.25214533e-21
7.05961816e-21
6.04573704e-21
5.18030706e-21
4.43920945e-21
3.80295564e-21
3.25562772e-21
2.78410265e-21
2.37749825e-21
2.02676733e-21
1.72438547e-21
1.46409512e-21
1.24068195e-21
1.04976424e-21
8.87581855e-22
7.50780288e-22
6.36143499e-22
5.40044161e-22
4.62005323e-22
3.97440943e-22
3.44034206e-22
2.99673302e-22
2.62558724e-22
2.31210577e-22
2.04444701e-22
1.81336204e-22
1.61183866e-22
1.43483205e-22
1.27923513e-22
1.14440121e-22
1.03398114e-22
9.6093646e-23
1.9976274e-17
1.41222795e-17
7.3476983e-18
3.47824932e-18
3.55207447e-18
2.21571834e-16
4.43570893e-16
5.00970041e-16
4.30298098e-16
3.15830418e-16
2.10673953e-16
1.97277966e-16
2.76128716e-16
3.62816099e-16
3.94340671e-16
3.6506048e-16
2.99493501e-16
2.25260656e-16
1.7351577e-16
2.03044184e-16
3.09873658e-16
4.36993273e-16
5.30917103e-16
5.68818169e-16
5.55595953e-16
5.07970474e-16
4.51152548e-16
4.54962803e-16
5.86824394e-16
8.52978899e-16
1.19794638e-15
1.54476245e-15
1.82946188e-15
2.01694354e-15
2.10173185e-15
2.12118512e-15
2.18633287e-15
2.43725425e-15
2.95398357e-15
3.70865045e-15
4.59228374e-15
5.46417822e-15
6.20905998e-15
6.75488154e-15
7.11105441e-15
7.40809064e-15
7.90949199e-15
8.87972994e-15
1.04324157e-14
1.2477298e-14
1.47763922e-14
1.70481186e-14
1.90590351e-14
2.06923021e-14
2.20148521e-14
2.33247983e-14
2.5100084e-14
2.78070567e-14
3.16858727e-14
3.66563317e-14
4.23819618e-14
4.84476002e-14
5.45688636e-14
6.07273245e-14
6.7124024e-14
7.40220179e-14
8.15746675e-14
8.97026034e-14
9.81681528e-14
1.06720174e-13
1.15351378e-13
1.24514172e-13
1.35189736e-13
1.48752004e-13
1.66494263e-13
1.89269478e-13
2.17032854e-13
2.49043712e-13
2.84006695e-13
3.20518839e-13
3.57425567e-13
3.94159535e-13
4.3103925e-13
4.69439637e-13
5.11721195e-13
5.60962234e-13
6.2043406e-13
6.93038303e-13
7.80842782e-13
8.84507783e-13
1.00370577e-12
1.13717636e-12
1.28331269e-12
1.44082527e-12
1.60912984e-12
1.78883375e-12
1.98185544e-12
2.19154949e-12
2.42274638e-12
2.68163847e-12
2.97495334e-12
3.31023257e-12
3.69628544e-12
4.14233027e-12
4.65844926e-12
5.25585052e-12
5.94789694e-12
6.75531292e-12
7.70406449e-12
8.82256028e-12
1.01381782e-11
1.17004418e-11
1.35781071e-11
1.58872431e-11
1.87770673e-11
2.25604866e-11
2.75301358e-11
3.33944334e-11
4.04136553e-11
4.98088137e-11
6.25753202e-11
8.00646285e-11
1.03793415e-10
1.34907778e-10
1.73529451e-10
2.17864703e-10
2.64251349e-10
3.07701637e-10
3.43741176e-10
3.69590338e-10
3.84410479e-10
3.88780042e-10
3.84723439e-10
3.74439295e-10
3.59618853e-10
3.42279457e-10
3.23559392e-10
3.04445196e-10
2.85407134e-10
2.67102079e-10
2.46259191e-10
2.1841063e-10
1.79772496e-10
1.34364103e-10
9.52366921e-11
6.69539747e-11
4.73148475e-11
3.36240734e-11
2.40206612e-11
1.72418705e-11
1.2429197e-11
8.99514458e-12
6.53712914e-12
4.77108741e-12
3.49117285e-12
2.56175619e-12
1.88581016e-12
1.39298763e-12
1.03038828e-12
7.63510247e-13
5.66776875e-13
4.21447269e-13
3.13974042e-13
2.343704e-13
1.75287903e-13
1.31241724e-13
9.83613327e-14
7.3816235e-14
5.54844869e-14
4.17770213e-14
3.15164692e-14
2.38223402e-14
1.80418641e-14
1.36916746e-14
1.04091148e-14
7.9263953e-15
6.04650746e-15
4.62047928e-15
3.53681256e-15
2.7118773e-15
2.08282511e-15
1.60232949e-15
1.23468706e-15
9.52929404e-16
7.36657238e-16
5.7040259e-16
4.42432249e-16
3.43771711e-16
2.67560716e-16
2.08589233e-16
1.62873251e-16
1.27362832e-16
9.97337625e-17
7.82322089e-17
6.14750178e-17
4.83700247e-17
3.80864214e-17
3.00116716e-17
2.36880265e-17
1.871374e-17
1.48003874e-17
1.16985132e-17
9.25508287e-18
7.33146507e-18
5.81402225e-18
4.61881601e-18
3.66920131e-18
2.92723276e-18
2.34117532e-18
1.87576443e-18
1.50529014e-18
1.20883534e-18
9.73838231e-19
7.85804337e-19
6.35403942e-19
5.14471794e-19
4.17206216e-19
3.38809861e-19
2.7578575e-19
2.25615343e-19
1.85285698e-19
1.5279798e-19
1.26603295e-19
1.0531322e-19
8.78972431e-20
7.35605292e-20
6.16922652e-20
5.18084655e-20
4.35351331e-20
3.65964629e-20
3.0781634e-20
2.59177205e-20
2.18570585e-20
1.84708385e-20
1.56460921e-20
1.32850747e-20
1.13039463e-20
9.62726086e-21
8.22160375e-21
7.03252246e-21
6.02178452e-21
5.15922157e-21
4.42073436e-21
3.78685148e-21
3.24166586e-21
2.77206369e-21
2.36717342e-21
2.01796159e-21
1.71691918e-21
1.45780416e-21
1.23541673e-21
1.0453878e-21
8.83968246e-22
7.47814441e-22
6.33736403e-22
5.38403558e-22
4.60456793e-22
3.96122344e-22
3.42925039e-22
2.98736281e-22
2.6176006e-22
2.3052283e-22
2.03846477e-22
1.80811204e-22
1.60719695e-22
1.43070313e-22
1.27554459e-22
1.14108553e-22
1.03097325e-22
9.58128913e-23
2.13650734e-15
7.27661454e-16
2.15575596e-16
6.48206443e-17
1.63404463e-16
1.73581152e-14
2.58177361e-14
2.13517517e-14
1.35611469e-14
7.44589063e-15
3.79095822e-15
5.19490092e-15
8.93482013e-15
1.06396069e-14
9.58483041e-15
7.18592414e-15
4.75855171e-15
2.91162051e-15
2.18740722e-15
3.88534307e-15
6.60761462e-15
8.52660477e-15
8.99343047e-15
8.31396919e-15
7.0655322e-15
5.69236001e-15
4.62860375e-15
5.164279e-15
7.81771199e-15
1.17013655e-14
1.54515557e-14
1.81109424e-14
1.93480714e-14
1.92839081e-14
1.82907364e-14
1.71440153e-14
1.73375833e-14
2.00095235e-14
2.49845488e-14
3.10158835e-14
3.66463602e-14
4.08118207e-14
4.30853576e-14
4.3545695e-14
4.28755586e-14
4.26711455e-14
4.50528791e-14
5.11479787e-14
6.03544804e-14
7.08660527e-14
8.06803601e-14
8.83455976e-14
9.32356158e-14
9.56088281e-14
9.67515548e-14
9.89328321e-14
1.0465519e-13
1.15327424e-13
1.30540978e-13
1.4842393e-13
1.66650464e-13
1.83479555e-13
1.98512769e-13
2.12622348e-13
2.27231053e-13
2.43268175e-13
2.60671334e-13
2.78479683e-13
2.95503293e-13
3.11058484e-13
3.25787081e-13
3.42016744e-13
3.63356474e-13
3.9366329e-13
4.35361446e-13
4.88557758e-13
5.50802994e-13
6.18252339e-13
6.86759193e-13
7.53021454e-13
8.1524145e-13
8.73562298e-13
9.30346993e-13
9.90158143e-13
1.05904819e-12
1.1435644e-12
1.24935719e-12
1.38022851e-12
1.53742427e-12
1.71944656e-12
1.92282092e-12
2.14328269e-12
2.37702046e-12
2.62173917e-12
2.87720434e-12
3.1454668e-12
3.43086566e-12
3.73996162e-12
4.08133045e-12
4.46464225e-12
4.89987888e-12
5.39769804e-12
5.97079526e-12
6.63101447e-12
7.39211304e-12
8.267983e-12
9.27682952e-12
1.04520686e-11
1.18310975e-11
1.34518713e-11
1.53445186e-11
1.75885074e-11
2.02837914e-11
2.36161668e-11
2.77874407e-11
3.31662926e-11
3.9931425e-11
4.76047847e-11
5.71763807e-11
6.96763405e-11
8.61854266e-11
1.0796304e-10
1.36118759e-10
1.70965589e-10
2.11767596e-10
2.56014412e-10
3.00071931e-10
3.3925835e-10
3.69977334e-10
3.9036973e-10
4.00221927e-10
4.00215474e-10
3.92777296e-10
3.79972221e-10
3.62942124e-10
3.43929108e-10
3.23556516e-10
3.03769478e-10
2.83196574e-10
2.61983144e-10
2.3641885e-10
2.02673183e-10
1.61033042e-10
1.1899251e-10
8.54143873e-11
6.10199655e-11
4.36395858e-11
3.12975364e-11
2.25194546e-11
1.62576698e-11
1.17753468e-11
8.55572359e-12
6.23698227e-12
4.56213631e-12
3.34580113e-12
2.46001142e-12
1.81368638e-12
1.34099946e-12
9.93346546e-13
7.37128937e-13
5.47958623e-13
4.08021001e-13
3.04357963e-13
2.27458857e-13
1.70323011e-13
1.27699697e-13
9.58333304e-14
7.20121423e-14
5.41973075e-14
4.085677e-14
3.0854272e-14
2.33429284e-14
1.76929598e-14
1.34372966e-14
1.02216813e-14
7.78861967e-15
5.94491573e-15
4.54537489e-15
3.48115674e-15
2.67053691e-15
2.05204533e-15
1.57936291e-15
1.21752001e-15
9.40071714e-16
7.26996885e-16
5.63119555e-16
4.36928613e-16
3.39621376e-16
2.64426973e-16
2.06200889e-16
1.61048695e-16
1.25982873e-16
9.86957506e-17
7.74366615e-17
6.08508341e-17
4.78860575e-17
3.773051e-17
2.97501803e-17
2.34836566e-17
1.85487898e-17
1.46750489e-17
1.1614306e-17
9.19620928e-18
7.2843688e-18
5.77521968e-18
4.59063729e-18
3.6522879e-18
2.91611822e-18
2.33170743e-18
1.86753811e-18
1.49982988e-18
1.20610859e-18
9.72216675e-19
7.84396966e-19
6.3426927e-19
5.13996462e-19
4.17280632e-19
3.391679e-19
2.76099942e-19
2.25752047e-19
1.85430305e-19
1.5294313e-19
1.26684357e-19
1.05329419e-19
8.78794195e-20
7.35278589e-20
6.1644005e-20
5.17431047e-20
4.34595123e-20
3.65184382e-20
3.07051709e-20
2.5844156e-20
2.17871807e-20
1.84053647e-20
1.5585432e-20
1.32293616e-20
1.12533947e-20
9.58062029e-21
8.18078484e-21
6.99635418e-21
5.98984781e-21
5.13113209e-21
4.39613814e-21
3.76542295e-21
3.22309571e-21
2.75605606e-21
2.35344814e-21
2.00625736e-21
1.70699595e-21
1.44944287e-21
1.2284181e-21
1.03956942e-21
8.7916272e-22
7.43868914e-22
6.30526579e-22
5.35966891e-22
4.5836423e-22
3.94361758e-22
3.4144748e-22
2.97488856e-22
2.60697098e-22
2.29607606e-22
2.03050455e-22
1.80112675e-22
1.60102165e-22
1.42521045e-22
1.27063472e-22
1.13667381e-22
1.02697064e-22
9.54394868e-23
2.21471955e-13
3.22323771e-14
4.82577384e-15
8.42295163e-16
8.19965523e-15
1.03542887e-12
1.06241399e-12
5.99312684e-13
2.65642885e-13
1.03968467e-13
3.92888568e-14
1.17863755e-13
2.00438022e-13
1.93548645e-13
1.37062481e-13
8.05608853e-14
4.21332577e-14
2.08003425e-14
1.95202972e-14
5.53327215e-14
8.81876618e-14
9.69424687e-14
8.65422119e-14
6.87373238e-14
5.12136728e-14
3.6946572e-14
2.87033814e-14
3.99779629e-14
6.78245246e-14
9.69931127e-14
1.16148194e-13
1.22439439e-13
1.1828087e-13
1.07536744e-13
9.40540679e-14
8.383226e-14
8.69848423e-14
1.06350425e-13
1.34525065e-13
1.61083319e-13
1.78963934e-13
1.85879086e-13
1.83105018e-13
1.73561972e-13
1.62160998e-13
1.57873215e-13
1.69355857e-13
1.96537581e-13
2.31336004e-13
2.63848501e-13
2.87175192e-13
2.98762544e-13
2.99559691e-13
2.93215118e-13
2.86373859e-13
2.87802938e-13
3.04501294e-13
3.37010968e-13
3.79429975e-13
4.23221062e-13
4.61391073e-13
4.90989435e-13
5.14026258e-13
5.35306989e-13
5.59268034e-13
5.87134601e-13
6.1682809e-13
6.44643696e-13
6.67632366e-13
6.85336448e-13
7.01274421e-13
7.22739733e-13
7.58543814e-13
8.1589063e-13
8.96654006e-13
9.96686422e-13
1.10744311e-12
1.21940245e-12
1.32471392e-12
1.41879346e-12
1.5007596e-12
1.57361781e-12
1.64421856e-12
1.72263338e-12
1.82020552e-12
1.94733904e-12
2.11124231e-12
2.31492645e-12
2.55658863e-12
2.83021201e-12
3.12764193e-12
3.44099337e-12
3.76458503e-12
4.09606076e-12
4.43672412e-12
4.79138268e-12
5.16785518e-12
5.57684673e-12
6.03098505e-12
6.54345797e-12
7.12732506e-12
7.79597853e-12
8.5663645e-12
9.45176044e-12
1.04698745e-11
1.16364435e-11
1.29745935e-11
1.45349077e-11
1.63654229e-11
1.85120141e-11
2.10009997e-11
2.39553232e-11
2.75034158e-11
3.19194313e-11
3.74452441e-11
4.43307206e-11
5.25834532e-11
6.20761284e-11
7.40992138e-11
8.93744069e-11
1.09045856e-10
1.34165274e-10
1.65375824e-10
2.02233157e-10
2.43542923e-10
2.86470774e-10
3.27774557e-10
3.6295247e-10
3.89145207e-10
4.0514701e-10
4.11126038e-10
4.07632259e-10
3.97621186e-10
3.8292041e-10
3.64016245e-10
3.43652101e-10
3.22601499e-10
3.01722987e-10
2.7955914e-10
2.55540871e-10
2.25829719e-10
1.88287055e-10
1.46735338e-10
1.0860627e-10
7.87847071e-11
5.684423e-11
4.0980416e-11
2.95790908e-11
2.13938089e-11
1.55113337e-11
1.12751931e-11
8.21731205e-12
6.00542326e-12
4.40168368e-12
3.23411747e-12
2.38182674e-12
1.75848281e-12
1.30161676e-12
9.65280551e-13
7.17112215e-13
5.33658245e-13
3.97791121e-13
2.97019412e-13
2.22172275e-13
1.66493435e-13
1.24939634e-13
9.38554793e-14
7.05960896e-14
5.31803604e-14
4.01243014e-14
3.03244974e-14
2.29580936e-14
1.74122759e-14
1.32325368e-14
1.0070625e-14
7.67740519e-15
5.86283558e-15
4.48464799e-15
3.436123e-15
2.63706548e-15
2.0271115e-15
1.56074784e-15
1.20359449e-15
9.29634542e-16
7.19156162e-16
5.57212384e-16
4.32462574e-16
3.36244972e-16
2.61876273e-16
2.0426547e-16
1.59574408e-16
1.24860817e-16
9.78440369e-17
7.67871787e-17
6.03510544e-17
4.74998379e-17
3.7438092e-17
2.95302976e-17
2.331623e-17
1.8420383e-17
1.45771953e-17
1.15435456e-17
9.14432002e-18
7.24563598e-18
5.74611009e-18
4.56904049e-18
3.637495e-18
2.90565013e-18
2.32396831e-18
1.86169282e-18
1.49570674e-18
1.20350265e-18
9.70506741e-19
7.83281223e-19
6.33561476e-19
5.13645463e-19
4.17192256e-19
3.39258801e-19
2.76257297e-19
2.25874047e-19
1.85533919e-19
1.53021269e-19
1.26720429e-19
1.05329932e-19
8.78554035e-20
7.34865456e-20
6.15889242e-20
5.1677858e-20
4.33893325e-20
3.64477907e-20
3.06367335e-20
2.57793714e-20
2.17267609e-20
1.83495761e-20
1.5534273e-20
1.31827337e-20
1.12113266e-20
9.54181204e-21
8.1472203e-21
6.9666132e-21
5.96361355e-21
5.10807672e-21
4.37596168e-21
3.74785329e-21
3.20787674e-21
2.74294317e-21
2.34220996e-21
1.9966783e-21
1.69887805e-21
1.44260584e-21
1.22269782e-21
1.03481588e-21
8.75237902e-22
7.40646886e-22
6.27901443e-22
5.33893257e-22
4.56635753e-22
3.92917779e-22
3.40236984e-22
2.96466388e-22
2.59825058e-22
2.28856139e-22
2.02396388e-22
1.79538357e-22
1.59594189e-22
1.42069117e-22
1.26659488e-22
1.13304413e-22
1.02367807e-22
9.5132478e-23
2.09217314e-23
1.80057205e-23
1.30124561e-23
9.11419352e-24
6.32641217e-24
4.38649651e-24
3.051268e-24
2.14308654e-24
1.5330616e-24
1.11864711e-24
8.30636127e-25
6.27877786e-25
4.85581849e-25
3.83628784e-25
3.08292927e-25
2.52549951e-25
2.11460033e-25
1.79274918e-25
1.54468203e-25
1.34996283e-25
1.19602337e-25
1.07232555e-25
9.6992626e-26
8.86322307e-26
8.18023801e-26
7.62162327e-26
7.14512579e-26
6.74084073e-26
6.39482073e-26
6.09682681e-26
5.84234114e-26
5.58227727e-26
4.03678663e-26
8.34533893e-26
4.53290857e-24
3.24071114e-22
2.35919139e-20
1.76373549e-18
1.40062613e-16
1.20980607e-14
7.39329782e-24
9.4836124e-24
9.0095419e-24
7.73981179e-24
6.35855601e-24
5.09134982e-24
4.00933008e-24
3.12454919e-24
2.42181718e-24
1.87428729e-24
1.45230888e-24
1.12880294e-24
8.85757171e-25
7.00421698e-25
5.60386557e-25
4.54120141e-25
3.72432542e-25
3.09009934e-25
2.59846659e-25
2.20568078e-25
1.89417777e-25
1.64623789e-25
1.44676049e-25
1.28658126e-25
1.15242725e-25
1.04516986e-25
9.5406426e-26
8.78213524e-26
8.13621338e-26
7.60910145e-26
7.14682465e-26
6.75097191e-26
6.08714382e-26
4.51984703e-26
7.48449915e-25
5.08856785e-23
3.54399241e-21
2.45069137e-19
1.66779986e-17
1.07209077e-15
1.76853932e-24
4.39401036e-24
5.31785349e-24
5.3742934e-24
5.03598807e-24
4.52256349e-24
3.95195258e-24
3.39170702e-24
2.871162e-24
2.4084644e-24
2.00378067e-24
1.657409e-24
1.36860649e-24
1.12863701e-24
9.31529564e-25
7.69025516e-25
6.37605661e-25
5.3070762e-25
4.43525167e-25
3.73240999e-25
3.15891367e-25
2.69477068e-25
2.31614198e-25
2.00395912e-25
1.74962443e-25
1.54190291e-25
1.37049006e-25
1.2270008e-25
1.10703315e-25
1.00717037e-25
9.23916666e-26
8.52735444e-26
7.87754452e-26
6.07641644e-26
1.60744641e-25
7.8460384e-24
4.99686186e-22
3.05603465e-20
1.72865129e-18
8.51628858e-17
3.60295066e-25
1.38315258e-24
3.04140888e-24
3.86742854e-24
4.07614185e-24
3.95651381e-24
3.67390643e-24
3.31673193e-24
2.93792036e-24
2.56567723e-24
2.21621496e-24
1.89955086e-24
1.61689434e-24
1.36942855e-24
1.15638897e-24
9.73629786e-25
8.19027775e-25
6.89002065e-25
5.80504773e-25
4.89714904e-25
4.14349694e-25
3.52237143e-25
3.00582656e-25
2.57780262e-25
2.22599705e-25
1.93433486e-25
1.69426453e-25
1.49541906e-25
1.3294274e-25