/*--------------------------------*- C++ -*----------------------------------*\
  =========                 |
  \\      /  F ield         | OpenFOAM: The Open Source CFD Toolbox
   \\    /   O peration     | Website:  https://openfoam.org
    \\  /    A nd           | Version:  6
     \\/     M anipulation  |
\*---------------------------------------------------------------------------*/
FoamFile
{
    version     2.0;
    format      ascii;
    class       volScalarField;
    location    "25000";
    object      HCNO;
}
// * * * * * * * * * * * * * * * * * * * * * * * * * * * * * * * * * * * * * //

dimensions      [0 0 0 0 0 0 0];

internalField   nonuniform List<scalar> 
44870
(
1.46233546e-103
1.80637056e-101
2.22036892e-99
2.76006147e-97
3.47254487e-95
4.42463035e-93
5.71343148e-91
7.48169829e-89
9.94285222e-87
1.34191687e-84
1.8405008e-82
2.56676426e-80
3.6414641e-78
5.25729963e-76
7.72548625e-74
1.15562681e-71
1.75954307e-69
2.72667279e-67
4.29911315e-65
6.89505486e-63
1.12434525e-60
1.86347584e-58
3.13738101e-56
5.36375079e-54
9.30593276e-52
1.63784565e-49
2.92198854e-47
5.28202458e-45
9.66456448e-43
1.78898091e-40
3.34462708e-38
6.30974934e-36
1.19758478e-33
2.28197867e-31
4.33834969e-29
8.17898717e-27
1.50626187e-24
2.65647374e-22
4.22556741e-20
5.69232285e-18
1.05588231e-103
1.29635399e-101
1.58559967e-99
1.96651566e-97
2.47846967e-95
3.18040668e-93
4.16368756e-91
5.57109792e-89
7.63065664e-87
1.07111527e-84
1.54212346e-82
2.27784451e-80
3.451411e-78
5.36186074e-76
8.53184139e-74
1.38926794e-71
2.3113963e-69
3.92502313e-67
6.79126626e-65
1.19621707e-62
2.14138524e-60
3.89383474e-58
7.18024209e-56
1.34273268e-53
2.54194304e-51
4.87494847e-49
9.451654e-47
1.855321e-44
3.67779655e-42
7.38032062e-40
1.49406419e-37
3.06198648e-35
6.32205031e-33
1.32153526e-30
2.77551052e-28
5.88745398e-26
1.24354825e-23
2.62194534e-21
5.16937199e-19
9.70105948e-17
4.53413675e-104
5.42375975e-102
6.53066969e-100
8.12532525e-98
1.05318641e-95
1.43012585e-93
2.04218976e-91
3.06971611e-89
4.84758391e-87
8.01413439e-85
1.37976753e-82
2.45964141e-80
4.51399989e-78
8.48512719e-76
1.6257458e-73
3.16688524e-71
6.24602545e-69
1.2460034e-66
2.50672425e-64
5.08545023e-62
1.03831126e-59
2.13512487e-57
4.41255458e-55
9.18289213e-53
1.91888752e-50
4.03999165e-48
8.53511645e-46
1.8184549e-43
3.88501672e-41
8.38355518e-39
1.81249938e-36
3.96554986e-34
8.68059587e-32
1.92836203e-29
4.2824443e-27
9.67934706e-25
2.18435163e-22
5.05742606e-20
1.12389016e-17
2.56657799e-15
9.42515231e-105
1.12685102e-102
1.52718004e-100
2.39824709e-98
4.29631379e-96
8.52342172e-94
1.81407346e-91
4.03501319e-89
9.20341411e-87
2.1259127e-84
4.93353051e-82
1.14462799e-79
2.64662407e-77
6.09097927e-75
1.3936451e-72
3.17083766e-70
7.17217575e-68
1.61419896e-65
3.6144867e-63
8.05960801e-61
1.79073218e-58
3.9677055e-56
8.76886704e-54
1.93542134e-51
4.26502806e-49
9.39970836e-47
2.07027067e-44
4.565757e-42
1.00686728e-39
2.22691502e-37
4.92643304e-35
1.09470077e-32
2.43301181e-30
5.44009993e-28
1.21651751e-25
2.73536611e-23
6.13434911e-21
1.37766807e-18
2.99404146e-16
6.3290796e-14
1.21276392e-105
3.74366734e-103
1.25957023e-100
4.21638181e-98
1.36162497e-95
4.21708096e-93
1.25406511e-90
3.59184239e-88
9.94278901e-86
2.66916906e-83
6.97136282e-81
1.77674316e-78
4.43075374e-76
1.0837861e-73
2.6061069e-71
6.1728994e-69
1.44282814e-66
3.33320853e-64
7.6216933e-62
1.72717035e-59
3.88325434e-57
8.67104678e-55
1.92460044e-52
4.24958157e-50
9.34078514e-48
2.04522897e-45
4.46326225e-43
9.71068102e-41
2.10766884e-38
4.56451556e-36
9.86810388e-34
2.13008167e-31
4.59242703e-29
9.89045941e-27
2.12836627e-24
4.57661789e-22
9.83607293e-20
2.11277534e-17
4.536154e-15
9.78688608e-13
1.81693355e-16
7.56903135e-16
1.96502629e-15
4.20226733e-15
8.0470801e-15
1.43575637e-14
2.46876927e-14
4.22474637e-14
7.32319675e-14
1.29024997e-13
2.28060764e-13
3.99613291e-13
6.85379874e-13
1.1462871e-12
1.86493835e-12
2.95358643e-12
4.56483474e-12
6.89364151e-12
1.02107105e-11
1.48439751e-11
2.12397736e-11
2.99448164e-11
4.16623144e-11
5.72838221e-11
7.79218235e-11
1.05006739e-10
1.40192831e-10
1.85880212e-10
2.44494694e-10
3.19818127e-10
4.15830756e-10
5.37835243e-10
6.92323614e-10
8.86558495e-10
1.13049177e-09
1.43440248e-09
1.81266121e-09
2.27998963e-09
2.85620847e-09
3.56258904e-09
4.42619564e-09
5.47763826e-09
6.75302265e-09
8.29180857e-09
1.01431315e-08
1.23551547e-08
1.49823059e-08
1.808379e-08
2.17238809e-08
2.59727004e-08
3.09054301e-08
3.66032848e-08
4.31507719e-08
5.06366012e-08
5.91487148e-08
6.87744903e-08
7.95945771e-08
9.16827105e-08
1.05101641e-07
1.19903447e-07
1.3612914e-07
1.53807839e-07
1.72961123e-07
1.93599852e-07
2.15737566e-07
2.39381244e-07
2.6455211e-07
2.91268208e-07
3.19562754e-07
3.49456126e-07
3.80967358e-07
4.14095125e-07
4.4881105e-07
4.85086534e-07
5.22837002e-07
5.62042042e-07
6.02551508e-07
6.44328953e-07
6.8730284e-07
7.31419326e-07
7.76628222e-07
8.22888769e-07
8.70176954e-07
9.18470572e-07
9.67753188e-07
1.01799913e-06
1.06919518e-06
1.12130421e-06
1.17429473e-06
1.22813811e-06
1.28280182e-06
1.33826562e-06
1.39451e-06
1.45152844e-06
1.50932897e-06
1.56793649e-06
1.62739215e-06
1.68775655e-06
1.74910775e-06
1.81155102e-06
1.87519233e-06
1.94016794e-06
2.00661915e-06
2.0747104e-06
2.14461636e-06
2.21655024e-06
2.29076348e-06
2.36754836e-06
2.44730193e-06
2.53051569e-06
2.61782781e-06
2.71004537e-06
2.8082064e-06
2.91367863e-06
3.02823697e-06
3.15415099e-06
3.29429276e-06
3.4521688e-06
3.63170388e-06
3.83643873e-06
4.06767987e-06
4.32081189e-06
4.57990341e-06
4.81345923e-06
4.97784104e-06
5.03200717e-06
4.95611136e-06
4.75897793e-06
4.47044555e-06
4.1270354e-06
3.7610022e-06
3.39567202e-06
3.04570549e-06
2.71878046e-06
2.4175565e-06
2.14164733e-06
1.8888614e-06
1.65626097e-06
1.44066326e-06
1.24044567e-06
1.04412932e-06
8.46286923e-07
6.4847335e-07
4.66518857e-07
3.22909294e-07
2.22905987e-07
1.55482757e-07
1.09549742e-07
7.79593078e-08
5.59653739e-08
4.04151761e-08
2.92965618e-08
2.12775187e-08
1.54501631e-08
1.12287798e-08
8.19561756e-09
6.00393924e-09
4.41318755e-09
3.25429091e-09
2.40740364e-09
1.78690307e-09
1.33129141e-09
9.96244171e-10
7.49808547e-10
5.69191427e-10
4.38894765e-10
3.49822857e-10
2.90338279e-10
2.51310027e-10
2.26185824e-10
2.1023598e-10
2.00198828e-10
1.93893482e-10
1.89924425e-10
1.8740862e-10
1.85823156e-10
1.84994084e-10
1.84875159e-10
1.85499488e-10
1.86941764e-10
1.89285912e-10
1.92604403e-10
1.96946752e-10
2.02334389e-10
2.08759689e-10
2.16188473e-10
2.24564959e-10
2.33816351e-10
2.43853525e-10
2.54576434e-10
2.65882136e-10
2.77689755e-10
2.8989764e-10
3.02391196e-10
3.15069479e-10
3.27861372e-10
3.40709438e-10
3.5349636e-10
3.66104416e-10
3.78486492e-10
3.90607597e-10
4.02465309e-10
4.1396194e-10
4.25022457e-10
4.35682658e-10
4.45900055e-10
4.55729569e-10
4.65035157e-10
4.73789897e-10
4.82076663e-10
4.89880984e-10
4.97215079e-10
5.04016824e-10
5.10336662e-10
5.16206725e-10
5.21661665e-10
5.26690051e-10
5.31241633e-10
5.35481232e-10
5.39428965e-10
5.43073222e-10
5.46422615e-10
5.49480478e-10
5.52264244e-10
5.5477614e-10
5.57018801e-10
5.58997397e-10
5.60724817e-10
5.62223406e-10
5.63517003e-10
5.64626995e-10
5.65570782e-10
5.66360007e-10
5.66999758e-10
5.674899e-10
5.67827958e-10
5.68012845e-10
5.68043333e-10
5.67900326e-10
5.67592107e-10
5.67125768e-10
5.66509209e-10
5.65752367e-10
5.64867132e-10
5.6386673e-10
5.62764879e-10
5.6157476e-10
5.60307839e-10
5.5897255e-10
5.57572932e-10
5.56107339e-10
5.54567586e-10
5.5293905e-10
5.51202431e-10
5.49336931e-10
5.47316591e-10
5.45190813e-10
5.42936495e-10
5.40582206e-10
5.38164271e-10
5.35720694e-10
5.33286706e-10
5.30891353e-10
5.28556199e-10
5.26296574e-10
5.2412572e-10
5.22063512e-10
5.20154307e-10
5.18505579e-10
5.17373909e-10
3.74950186e-15
1.34184369e-14
3.03055349e-14
5.85033783e-14
1.0356769e-13
1.7413478e-13
2.90634829e-13
5.00867906e-13
8.95467797e-13
1.62926277e-12
2.93180338e-12
5.13671746e-12
8.68073692e-12
1.41615873e-11
2.23413624e-11
3.4206695e-11
5.10384114e-11
7.43975651e-11
1.06333438e-10
1.4917625e-10
2.05896077e-10
2.79917398e-10
3.75275844e-10
4.96960912e-10
6.50282824e-10
8.42350487e-10
1.08037285e-09
1.3741597e-09
1.73334967e-09
2.17071398e-09
2.69911065e-09
3.3338566e-09
4.09083965e-09
4.98775195e-09
6.04396763e-09
7.27987821e-09
8.71921981e-09
1.03857456e-08
1.23083438e-08
1.45146724e-08
1.70382062e-08
1.99098518e-08
2.3164865e-08
2.68332061e-08
3.09561455e-08
3.55646348e-08
4.06946052e-08
4.63841004e-08
5.26733233e-08
5.96048538e-08
6.72229548e-08
7.55742553e-08
8.47067366e-08
9.46709906e-08
1.05519223e-07
1.17306419e-07
1.30087995e-07
1.43919828e-07
1.58854911e-07
1.74942577e-07
1.92225657e-07
2.10740835e-07
2.30517946e-07
2.51582495e-07
2.73959401e-07
2.97669114e-07
3.22743429e-07
3.49212267e-07
3.77114578e-07
4.06480266e-07
4.37336686e-07
4.69693695e-07
5.03539906e-07
5.3885736e-07
5.75585728e-07
6.13706373e-07
6.53095873e-07
6.93724168e-07
7.35530182e-07
7.78470692e-07
8.22500372e-07
8.67588462e-07
9.13717754e-07
9.60869913e-07
1.00902959e-06
1.05817517e-06
1.10829069e-06
1.15934402e-06
1.21130441e-06
1.26414829e-06
1.31784654e-06
1.37238046e-06
1.42773893e-06
1.48392171e-06
1.54094251e-06
1.59883019e-06
1.65762861e-06
1.71739993e-06
1.7782229e-06
1.84020409e-06
1.90344813e-06
1.96809143e-06
2.03427726e-06
2.10217275e-06
2.17195507e-06
2.24384304e-06
2.31809156e-06
2.39500303e-06
2.47498841e-06
2.55855627e-06
2.64635564e-06
2.73920991e-06
2.83818021e-06
2.94464956e-06
3.06039931e-06
3.1876809e-06
3.32931045e-06
3.48866403e-06
3.66939676e-06
3.87454425e-06
4.1046117e-06
4.35388445e-06
4.6053251e-06
4.82705562e-06
4.97671242e-06
5.01609731e-06
4.92838833e-06
4.72395347e-06
4.43244641e-06
4.08924091e-06
3.72526193e-06
3.36274247e-06
3.01571392e-06
2.69149986e-06
2.3925644e-06
2.11850623e-06
1.86719976e-06
1.63588243e-06
1.42154111e-06
1.22148416e-06
1.02509001e-06
8.27668171e-07
6.31724509e-07
4.53920427e-07
3.15034347e-07
2.18312047e-07
1.52735604e-07
1.07842469e-07
7.6874196e-08
5.52605233e-08
3.99414928e-08
2.89723714e-08
2.10527448e-08
1.52912257e-08
1.11220646e-08
8.12331256e-09
5.95440178e-09
4.37897306e-09
3.23053347e-09
2.390861e-09
1.77538134e-09
1.32329113e-09
9.90734641e-10
7.46082053e-10
5.66774833e-10
4.37526306e-10
3.49307207e-10
2.90379116e-10
2.5169465e-10
2.26770083e-10
2.10926413e-10
2.00937235e-10
1.94646448e-10
1.90676577e-10
1.88151893e-10
1.86553131e-10
1.8571746e-10
1.85597195e-10
1.86224925e-10
1.87674565e-10
1.90028862e-10
1.93358946e-10
1.97713067e-10
2.03111547e-10
2.09545734e-10
2.16980574e-10
2.25359911e-10
2.34611097e-10
2.44644708e-10
2.5535976e-10
2.66653961e-10
2.78446186e-10
2.90638283e-10
3.03112958e-10
3.15765239e-10
3.28529419e-10
3.41354165e-10
3.54122226e-10
3.66704045e-10
3.79052034e-10
3.9114345e-10
4.02980075e-10
4.14460046e-10
4.25492661e-10
4.36117654e-10
4.4630961e-10
4.56125159e-10
4.65414322e-10
4.74141121e-10
4.82399835e-10
4.90186551e-10
4.97509062e-10
5.04296106e-10
5.10593994e-10
5.16443595e-10
5.21884796e-10
5.26902859e-10
5.31435681e-10
5.35663509e-10
5.39597962e-10
5.43228464e-10
5.46565491e-10
5.49610248e-10
5.52381093e-10
5.54881667e-10
5.57114405e-10
5.59083905e-10
5.60802919e-10
5.62293916e-10
5.63580615e-10
5.64684019e-10
5.65621189e-10
5.66403634e-10
5.67036446e-10
5.67519547e-10
5.67850567e-10
5.68028564e-10
5.6805308e-10
5.67903327e-10
5.67589138e-10
5.67117459e-10
5.66496056e-10
5.657348e-10
5.64845522e-10
5.63841389e-10
5.62736056e-10
5.61542643e-10
5.60272558e-10
5.58934192e-10
5.57531549e-10
5.56062979e-10
5.54520319e-10
5.52889009e-10
5.51149867e-10
5.49282266e-10
5.47259033e-10
5.45134135e-10
5.42879184e-10
5.40525068e-10
5.38107836e-10
5.35665266e-10
5.33232415e-10
5.3083819e-10
5.28504052e-10
5.26245262e-10
5.24075037e-10
5.2201325e-10
5.20104277e-10
5.18455624e-10
5.1732365e-10
1.41063672e-13
4.39911724e-13
8.8683631e-13
1.56607641e-12
2.54608983e-12
3.99627021e-12
6.57726478e-12
1.17267925e-11
2.17402492e-11
3.97719682e-11
6.96146567e-11
1.1566635e-10
1.82738423e-10
2.76489007e-10
4.03385692e-10
5.71186445e-10
7.88809247e-10
1.06607971e-09
1.41379459e-09
1.84279222e-09
2.36452924e-09
2.99053823e-09
3.73319097e-09
4.60616645e-09
5.6242819e-09
6.80582553e-09
8.16869866e-09
9.73560584e-09
1.15249039e-08
1.35592157e-08
1.5857715e-08
1.84396569e-08
2.13225337e-08
2.45255539e-08
2.80681858e-08
3.19729125e-08
3.62642803e-08
4.09675628e-08
4.61099216e-08
5.17130784e-08
5.78001068e-08
6.4385407e-08
7.14869285e-08
7.91108887e-08
8.72827274e-08
9.60092538e-08
1.05303973e-07
1.15180463e-07
1.25651381e-07
1.36728591e-07
1.48422604e-07
1.60746057e-07
1.73713846e-07
1.87345749e-07
2.01666454e-07
2.16705866e-07
2.32496891e-07
2.4907441e-07
2.66472628e-07
2.84724009e-07
3.03858444e-07
3.23905265e-07
3.448916e-07
3.6685119e-07
3.89814012e-07
4.13815342e-07
4.38903753e-07
4.65124998e-07
4.92529748e-07
5.21162688e-07
5.51063205e-07
5.82254978e-07
6.14744867e-07
6.48526674e-07
6.83567054e-07
7.19849615e-07
7.57293427e-07
7.95880603e-07
8.35573975e-07
8.76350203e-07
9.18187976e-07
9.61076565e-07
1.00501099e-06
1.0499845e-06
1.0959863e-06
1.14300258e-06
1.1910143e-06
1.24000123e-06
1.28993734e-06
1.34080272e-06
1.39258295e-06
1.44527125e-06
1.49886995e-06
1.55339254e-06
1.60886501e-06
1.6653247e-06
1.72282146e-06
1.78142148e-06
1.84120566e-06
1.90228227e-06
1.96475641e-06
2.02876537e-06
2.09445816e-06
2.16200832e-06
2.23159945e-06
2.30346026e-06
2.37785485e-06
2.45511127e-06
2.53566749e-06
2.62006867e-06
2.70898767e-06
2.80328406e-06
2.90405491e-06
3.01270999e-06
3.13103215e-06
3.26120624e-06
3.40589242e-06
3.5681329e-06
3.75092781e-06
3.95613253e-06
4.18247416e-06
4.42192541e-06
4.65534053e-06
4.85050019e-06
4.96827081e-06
4.97660079e-06
4.86474195e-06
4.64579774e-06
4.34874159e-06
4.00645233e-06
3.64710628e-06
3.29067369e-06
2.9499559e-06
2.63155882e-06
2.3375336e-06
2.06748847e-06
1.81945429e-06
1.59108907e-06
1.37981635e-06
1.179642e-06
9.83258134e-07
7.87111267e-07
5.96082826e-07
4.277307e-07
2.98786749e-07
2.08730231e-07
1.46938611e-07
1.04211462e-07
7.4534922e-08
5.37312968e-08
3.89091017e-08
2.82643206e-08
2.05614771e-08
1.49456338e-08
1.08918132e-08
7.9670957e-09
5.84721425e-09
4.30484897e-09
3.17902049e-09
2.35497154e-09
1.75037708e-09
1.30592882e-09
9.78782696e-10
7.38007164e-10
5.61551883e-10
4.34602983e-10
3.48224439e-10
2.90504939e-10
2.52567546e-10
2.28073004e-10
2.12457056e-10
2.02569803e-10
1.96308946e-10
1.92336546e-10
1.89792048e-10
1.88162698e-10
1.87313222e-10
1.8719003e-10
1.87825123e-10
1.89290738e-10
1.91667033e-10
1.95022201e-10
1.99401699e-10
2.04823433e-10
2.11276621e-10
2.18724393e-10
2.27109485e-10
2.36359146e-10
2.46383929e-10
2.57082118e-10
2.68348581e-10
2.80108805e-10
2.92262469e-10
3.04694749e-10
3.17295903e-10
3.30002678e-10
3.42769602e-10
3.55486169e-10
3.68014338e-10
3.80302784e-10
3.92331082e-10
4.04107089e-10
4.1553777e-10
4.26519858e-10
4.37085818e-10
4.47220111e-10
4.56986929e-10
4.66231159e-10
4.74910138e-10
4.83120883e-10
4.90863319e-10
4.98147343e-10
5.04899736e-10
5.11159676e-10
5.16970952e-10
5.22377169e-10
5.27365923e-10
5.31891774e-10
5.36077293e-10
5.399717e-10
5.43570083e-10
5.46877837e-10
5.49894762e-10
5.52638779e-10
5.55114542e-10
5.57324623e-10
5.59273701e-10
5.6097435e-10
5.62448673e-10
5.63719982e-10
5.64808678e-10
5.65731234e-10
5.66498802e-10
5.67116409e-10
5.67584093e-10
5.67899712e-10
5.68062668e-10
5.68074123e-10
5.67909549e-10
5.67582316e-10
5.6709895e-10
5.66466926e-10
5.65695978e-10
5.64797822e-10
5.63785492e-10
5.6267251e-10
5.61471863e-10
5.60194836e-10
5.58849721e-10
5.57440458e-10
5.55965378e-10
5.5441637e-10
5.52779011e-10
5.51034368e-10
5.49162221e-10
5.47140432e-10
5.45009882e-10
5.42753212e-10
5.40399454e-10
5.37983728e-10
5.35543332e-10
5.33112943e-10
5.30721167e-10
5.28389242e-10
5.26132287e-10
5.23963447e-10
5.21902593e-10
5.19994151e-10
5.18345703e-10
5.17213416e-10
5.66857064e-12
1.39392692e-11
2.46301254e-11
3.77203011e-11
5.30858123e-11
7.59645627e-11
1.2910044e-10
2.44717741e-10
4.54326589e-10
7.83002081e-10
1.24584571e-09
1.85068257e-09
2.60361227e-09
3.51754747e-09
4.61118231e-09
5.90951846e-09
7.43449971e-09
9.20289253e-09
1.12227348e-08
1.34927457e-08
1.60105888e-08
1.87757586e-08
2.17998523e-08
2.51019908e-08
2.87158402e-08
3.26774115e-08
3.70232041e-08
4.17832711e-08
4.69647637e-08
5.25767805e-08
5.86166695e-08
6.50833134e-08
7.19824922e-08
7.93323741e-08
8.71606736e-08
9.55002594e-08
1.04379136e-07
1.13814639e-07
1.2380912e-07
1.3434866e-07
1.45415312e-07
1.56985588e-07
1.69047543e-07
1.81583078e-07
1.9460531e-07
2.08101878e-07
2.22066333e-07
2.36487481e-07
2.51350116e-07
2.6663772e-07
2.82338068e-07
2.98448396e-07
3.14975841e-07
3.31938454e-07
3.49359456e-07
3.67264305e-07
3.85675639e-07
4.04612562e-07
4.24090823e-07
4.441239e-07
4.64728669e-07
4.85926127e-07
5.07745651e-07
5.30224724e-07
5.53408019e-07
5.77348327e-07
6.02109219e-07
6.277536e-07
6.54346079e-07
6.81942411e-07
7.10587495e-07
7.40307492e-07
7.71111472e-07
8.02992292e-07
8.35927586e-07
8.69902145e-07
9.04876445e-07
9.40852443e-07
9.77827252e-07
1.01580705e-06
1.05481019e-06
1.09484987e-06
1.13593484e-06
1.17807171e-06
1.22125354e-06
1.26547341e-06
1.31071435e-06
1.35696196e-06
1.40420448e-06
1.45243686e-06
1.50166446e-06
1.55190154e-06
1.60317058e-06
1.65550433e-06
1.70894473e-06
1.76353964e-06
1.81934649e-06
1.87643798e-06
1.9348977e-06
1.99483175e-06
2.05635361e-06
2.11960404e-06
2.18474265e-06
2.25195355e-06
2.32143148e-06
2.39341089e-06
2.46817863e-06
2.54610439e-06
2.62766458e-06
2.71345308e-06
2.80417716e-06
2.90073046e-06
3.00424572e-06
3.11614896e-06
3.23817981e-06
3.37234228e-06
3.52096749e-06
3.68646045e-06
3.87066411e-06
4.07347804e-06
4.2909618e-06
4.51196537e-06
4.71509669e-06
4.86888121e-06
4.93998667e-06
4.90515818e-06
4.76135068e-06
4.52422085e-06
4.22114081e-06
3.88136472e-06
3.52931993e-06
3.18187839e-06
2.85038774e-06
2.54049746e-06
2.25366341e-06
1.98963223e-06
1.74669899e-06
1.52326158e-06
1.31477372e-06
1.11546155e-06
9.1985046e-07
7.27240931e-07
5.4550088e-07
3.91945237e-07
2.76699632e-07
1.9543764e-07
1.38742679e-07
9.90124341e-08
7.10866042e-08
5.14629507e-08
3.73645174e-08
2.72017184e-08
1.98243423e-08
1.44426082e-08
1.05545217e-08
7.73724798e-09
5.68905387e-09
4.19524397e-09
3.1027393e-09
2.30177501e-09
1.71329648e-09
1.28018219e-09
9.61073892e-10
7.26068922e-10
5.53867637e-10
4.30395003e-10
3.46716991e-10
2.90794035e-10
2.53967199e-10
2.30100725e-10
2.14815047e-10
2.05072936e-10
1.98851872e-10
1.94873681e-10
1.92281097e-10
1.90619127e-10
1.89750254e-10
1.89622551e-10
1.90268456e-10
1.91757692e-10
1.94166483e-10
1.9755859e-10
2.01975254e-10
2.07430763e-10
2.13911281e-10
2.21377307e-10
2.29769648e-10
2.39015018e-10
2.49024661e-10
2.59696505e-10
2.70925151e-10
2.8263032e-10
2.94721924e-10
3.07088082e-10
3.19618221e-10
3.32240527e-10
3.44912696e-10
3.57541381e-10
3.69991707e-10
3.82208698e-10
3.94141348e-10
4.05811851e-10
4.17153254e-10
4.28069316e-10
4.38567014e-10
4.48610549e-10
4.58286898e-10
4.67451144e-10
4.76071247e-10
4.84224615e-10
4.91894152e-10
4.99107791e-10
5.0580261e-10
5.12016208e-10
5.17777027e-10
5.23125662e-10
5.28062047e-10
5.32559076e-10
5.36702874e-10
5.40540805e-10
5.44088734e-10
5.47349888e-10
5.50325045e-10
5.53030278e-10
5.55468625e-10
5.5764346e-10
5.59560913e-10
5.61233584e-10
5.62682549e-10
5.639302e-10
5.64996268e-10
5.65896519e-10
5.66641536e-10
5.67236141e-10
5.67680527e-10
5.67972901e-10
5.68113157e-10
5.68105106e-10
5.67917903e-10
5.67571087e-10
5.67070121e-10
5.66422065e-10
5.65636475e-10
5.64724895e-10
5.63700169e-10
5.62575616e-10
5.61364024e-10
5.60076501e-10
5.5872119e-10
5.57301933e-10
5.55817038e-10
5.5425847e-10
5.52612012e-10
5.50859098e-10
5.48980304e-10
5.46959704e-10
5.44820832e-10
5.42562048e-10
5.40208867e-10
5.37795388e-10
5.35358237e-10
5.32931529e-10
5.30543418e-10
5.28214813e-10
5.2596062e-10
5.23793871e-10
5.21734429e-10
5.19826798e-10
5.18178696e-10
5.17046213e-10
2.2008838e-10
3.37682398e-10
4.34891795e-10
5.16909221e-10
5.91341317e-10
8.34255953e-10
1.78274068e-09
3.65739047e-09
6.36840587e-09
9.67899099e-09
1.33134436e-08
1.70780859e-08
2.09692082e-08
2.5134692e-08
2.97422108e-08
3.48890858e-08
4.05669511e-08
4.66694185e-08
5.30319888e-08
5.95202289e-08
6.61020614e-08
7.2851637e-08
7.99224299e-08
8.74891604e-08
9.57132153e-08
1.04681191e-07
1.14408635e-07
1.24784461e-07
1.35679818e-07
1.46969335e-07
1.58582228e-07
1.70520588e-07
1.8285413e-07
1.95693328e-07
2.09142281e-07
2.23255612e-07
2.38009553e-07
2.53316181e-07
2.69052014e-07
2.85101261e-07
3.01389366e-07
3.17889651e-07
3.34623481e-07
3.51615012e-07
3.68907879e-07
3.86486084e-07
4.04311993e-07
4.22329527e-07
4.40484676e-07
4.58745076e-07
4.77110255e-07
4.95612116e-07
5.14300384e-07
5.33229287e-07
5.52436394e-07
5.71939685e-07
5.91735767e-07
6.11812693e-07
6.32160992e-07
6.52780377e-07
6.73690128e-07
6.94922073e-07
7.16529125e-07
7.38562319e-07
7.61096584e-07
7.84203492e-07
8.07957422e-07
8.32433424e-07
8.57700793e-07
8.83807177e-07
9.1078095e-07
9.38624585e-07
9.67324036e-07
9.96855061e-07
1.02719543e-06
1.05834047e-06
1.09030012e-06
1.12311269e-06
1.15682289e-06
1.19148343e-06
1.22714686e-06
1.26385093e-06
1.30161519e-06
1.34044745e-06
1.38033823e-06
1.4212844e-06
1.4632728e-06
1.50630054e-06
1.55037855e-06
1.59552865e-06
1.64178502e-06
1.68918983e-06
1.73779061e-06
1.78764107e-06
1.83879811e-06
1.89131882e-06
1.94526694e-06
2.00072611e-06
2.05776979e-06
2.11650886e-06
2.17707486e-06
2.23961416e-06
2.30430221e-06
2.37133829e-06
2.44092598e-06
2.51330225e-06
2.58879184e-06
2.66781928e-06
2.75091575e-06
2.83872348e-06
2.93196036e-06
3.03154327e-06
3.13861128e-06
3.25455101e-06
3.38094349e-06
3.51937855e-06
3.67157437e-06
3.83884184e-06
4.02121385e-06
4.21577525e-06
4.41534606e-06
4.60561844e-06
4.76409924e-06
4.86222918e-06
4.87537526e-06
4.79045979e-06
4.61215273e-06
4.35698786e-06
4.04961417e-06
3.71489827e-06
3.37297815e-06
3.03706225e-06
2.71737442e-06
2.4184186e-06
2.1408696e-06
1.88494793e-06
1.64930117e-06
1.43167836e-06
1.2266048e-06
1.02912848e-06
8.3645023e-07
6.51616171e-07
4.8513501e-07
3.50858784e-07
2.51164628e-07
1.79652255e-07
1.28781215e-07
9.25985529e-08
6.68473861e-08
4.85220942e-08
3.53370241e-08
2.58029214e-08
1.88788972e-08
1.38100398e-08
1.01255602e-08
7.44312656e-09
5.48578539e-09
4.05397978e-09
3.00423601e-09
2.23299552e-09
1.66532497e-09
1.24687997e-09
9.38199667e-10
7.10701086e-10
5.44048388e-10
4.25064875e-10
3.44948795e-10
2.91364414e-10
2.55971829e-10
2.32904709e-10
2.18032462e-10
2.0846684e-10
2.02288593e-10
1.98299405e-10
1.95633725e-10
1.93932786e-10
1.93037334e-10
1.9290318e-10
1.93562783e-10
1.95082348e-10
1.9753284e-10
2.00972173e-10
2.05435969e-10
2.10933715e-10
2.17447793e-10
2.24935565e-10
2.3333502e-10
2.4257137e-10
2.52557318e-10
2.63191884e-10
2.74368924e-10
2.85999386e-10
2.98002863e-10
3.10276182e-10
3.22717065e-10
3.35232089e-10
3.47771668e-10
3.60270931e-10
3.72616806e-10
3.84755789e-10
3.96566356e-10
4.08083699e-10
4.19289387e-10
4.3012228e-10
4.4055069e-10
4.50474837e-10
4.60015932e-10
4.69059262e-10
4.7761012e-10
4.85701937e-10
4.9327209e-10
5.00381342e-10
5.06992308e-10
5.13153123e-10
5.18854885e-10
5.24124326e-10
5.28984236e-10
5.3342746e-10
5.37524172e-10
5.41299714e-10
5.4478011e-10
5.47977503e-10
5.50897323e-10
5.53552749e-10
5.55941615e-10
5.58068753e-10
5.59943372e-10
5.61578512e-10
5.62993441e-10
5.64209085e-10
5.65244486e-10
5.66114675e-10
5.66829481e-10
5.67393374e-10
5.67806726e-10
5.68068202e-10
5.68178243e-10
5.6814481e-10
5.67926964e-10
5.675544e-10
5.67030156e-10
5.66360837e-10
5.65555804e-10
5.64626388e-10
5.63585183e-10
5.62445242e-10
5.61219098e-10
5.59917622e-10
5.58548766e-10
5.57116244e-10
5.55618337e-10
5.5404711e-10
5.52388614e-10
5.5062476e-10
5.48737027e-10
5.46713061e-10
5.44567582e-10
5.42306545e-10
5.39954197e-10
5.37543678e-10
5.35110797e-10
5.32688936e-10
5.30305653e-10
5.27981431e-10
5.25730897e-10
5.23566922e-10
5.21509352e-10
5.19602804e-10
5.17955192e-10
5.16822597e-10
5.21672002e-09
3.97527838e-09
3.22724649e-09
2.75798956e-09
2.49871599e-09
5.628746e-09
1.80128467e-08
3.35423512e-08
4.76275411e-08
5.8549641e-08
6.6121635e-08
7.14732503e-08
7.69889447e-08
8.43425894e-08
9.38357739e-08
1.04766434e-07
1.16078523e-07
1.26792664e-07
1.36248617e-07
1.44600293e-07
1.52628925e-07
1.61249817e-07
1.71179514e-07
1.82775489e-07
1.96057422e-07
2.10705566e-07
2.26149415e-07
2.4169984e-07
2.5693223e-07
2.71767125e-07
2.86421741e-07
3.01279507e-07
3.16753513e-07
3.33154599e-07
3.5058241e-07
3.68871553e-07
3.8765418e-07
4.0653498e-07
4.25231711e-07
4.43645383e-07
4.61846904e-07
4.80004775e-07
4.98309859e-07
5.16870087e-07
5.35713677e-07
5.54732233e-07
5.73769827e-07
5.92687626e-07
6.114193e-07
6.2998652e-07
6.4848187e-07
6.6703373e-07
6.85758108e-07
7.04727803e-07
7.23946665e-07
7.43374142e-07
7.6294659e-07
7.82617015e-07
8.0237249e-07
8.2223425e-07
8.42257137e-07
8.62510199e-07
8.83078774e-07
9.04032039e-07
9.25456064e-07
9.47429414e-07
9.70029781e-07
9.93324222e-07
1.01736635e-06
1.04217097e-06
1.06772921e-06
1.09400118e-06
1.12094223e-06
1.1485155e-06
1.17670911e-06
1.20554934e-06
1.2350977e-06
1.26543478e-06
1.29664709e-06
1.32882058e-06
1.36202204e-06
1.39629099e-06
1.43164006e-06
1.46806584e-06
1.50555228e-06
1.5440963e-06
1.58369323e-06
1.62435874e-06
1.66612801e-06
1.70904934e-06
1.75318234e-06
1.79859028e-06
1.84533783e-06
1.89348854e-06
1.94310524e-06
1.99424918e-06
2.04698435e-06
2.10139946e-06
2.15755724e-06
2.21558604e-06
2.27562062e-06
2.33781934e-06
2.40237214e-06
2.46948982e-06
2.53936837e-06
2.61225019e-06
2.68849237e-06
2.76856399e-06
2.85303547e-06
2.94256644e-06
3.03783245e-06
3.13974208e-06
3.24938535e-06
3.36803669e-06
3.49702083e-06
3.63737487e-06
3.79015306e-06
3.95553929e-06
4.13191122e-06
4.31402951e-06
4.49280168e-06
4.6526565e-06
4.77207043e-06
4.82602804e-06
4.79723335e-06
4.67886812e-06
4.47984917e-06
4.21522765e-06
3.90740024e-06
3.57818828e-06
3.24486659e-06
2.91790449e-06
2.60760121e-06
2.31744657e-06
2.04743336e-06
1.79857392e-06
1.56889906e-06
1.35555233e-06
1.15343274e-06
9.58695159e-07
7.70757201e-07
5.95465877e-07
4.43224095e-07
3.2298917e-07
2.33407995e-07
1.68327723e-07
1.21468029e-07
8.78126454e-08
6.36629405e-08
4.63464795e-08
3.38404934e-08
2.47692222e-08
1.81640528e-08
1.33246753e-08
9.79308026e-09
7.21364525e-09
5.32643692e-09
3.94288933e-09
2.92660001e-09
2.17870875e-09
1.62743896e-09
1.22059152e-09
9.20180892e-10
6.98655889e-10
5.36435798e-10
4.21019682e-10
3.43753711e-10
2.92027503e-10
2.577595e-10
2.35311336e-10
2.20750749e-10
2.11312693e-10
2.05159092e-10
2.01159381e-10
1.9843166e-10
1.96694655e-10
1.95776595e-10
1.95636596e-10
1.96306609e-10
1.97849773e-10
2.0033272e-10
2.03808637e-10
2.08308591e-10
2.1383812e-10
2.20376578e-10
2.27879123e-10
2.36281856e-10
2.4550848e-10
2.55471738e-10
2.66072009e-10
2.77203589e-10
2.88774253e-10
3.00705835e-10
3.12900768e-10
3.25258834e-10
3.37686848e-10
3.50126855e-10
3.62526694e-10
3.74776671e-10
3.86830716e-10
3.98548238e-10
4.09956495e-10
4.21062108e-10
4.31807841e-10
4.42157524e-10
4.51994645e-10
4.61442644e-10
4.7039478e-10
4.78868572e-10
4.86894045e-10
4.94393095e-10
5.01430016e-10
5.07974762e-10
5.14077951e-10
5.19724932e-10
5.2493706e-10
5.29741299e-10
5.34136562e-10
5.38188117e-10
5.41914258e-10
5.45343875e-10
5.48492029e-10
5.51366501e-10
5.5397953e-10
5.56328091e-10
5.58417219e-10
5.60257138e-10
5.61861173e-10
5.63247766e-10
5.64436914e-10
5.65446894e-10
5.66292062e-10
5.66981723e-10
5.67520185e-10
5.67907983e-10
5.68144113e-10
5.68229296e-10
5.68175793e-10
5.67932099e-10
5.67538843e-10
5.66995678e-10
5.66309024e-10
5.65488122e-10
5.64544137e-10
5.63489464e-10
5.62336941e-10
5.61098893e-10
5.59786004e-10
5.5840607e-10
5.56962709e-10
5.55454181e-10
5.53872637e-10
5.52204346e-10
5.50431601e-10
5.48536532e-10
5.46508324e-10
5.44358745e-10
5.42096194e-10
5.39744594e-10
5.37336481e-10
5.34907044e-10
5.32489088e-10
5.30109694e-10
5.27788992e-10
5.25541383e-10
5.2337962e-10
5.21323538e-10
5.19417838e-10
5.17770603e-10
5.16637938e-10
2.21196918e-20
3.75834047e-20
4.84074386e-20
5.6273509e-20
6.2008047e-20
6.6116224e-20
6.89690616e-20
7.08767685e-20
7.20700428e-20
7.27455513e-20
7.30524159e-20
7.30864944e-20
7.29185035e-20
7.26110408e-20
7.22062786e-20
7.17325279e-20
7.12110789e-20
7.06557269e-20
7.00813301e-20
6.94965899e-20
6.89066248e-20
6.83171342e-20
6.77327538e-20
6.71568688e-20
6.65902345e-20
6.60352141e-20
6.5492789e-20
6.49646383e-20
6.44516917e-20
6.39545294e-20
6.34963679e-20
6.39805064e-20
1.01648923e-19
1.62664007e-18
6.23845781e-17
2.46362338e-15
9.60521042e-14
3.63766815e-12
1.28539799e-10
3.42982729e-09
1.70844123e-20
3.07224442e-20
4.10323098e-20
4.89898507e-20
5.52086847e-20
6.00917342e-20
6.3902448e-20
6.6839923e-20
6.90531259e-20
7.0676438e-20
7.18271365e-20
7.25895779e-20
7.3040226e-20
7.32442924e-20
7.32561049e-20
7.31171547e-20
7.28611695e-20
7.25156979e-20
7.21022864e-20
7.16378732e-20
7.11359671e-20
7.06068085e-20
7.00591739e-20
6.95009172e-20
6.89359446e-20
6.83696511e-20
6.78051583e-20
6.72452551e-20
6.66926623e-20
6.61493879e-20
6.56220183e-20
6.53004457e-20
7.27321006e-20
3.8723292e-19
1.2740293e-17
4.88207776e-16
1.82035755e-14
6.40976608e-13
2.00158829e-11
4.52606089e-10
1.27090241e-20
2.45404341e-20
3.43101331e-20
4.22545019e-20
4.87253496e-20
5.40279337e-20
5.8384456e-20
6.19474343e-20
6.48333003e-20
6.71453201e-20
6.8974869e-20
7.03921541e-20
7.14602535e-20
7.22318749e-20
7.27549922e-20
7.30672488e-20
7.32061032e-20
7.32002809e-20
7.3074953e-20
7.28513892e-20
7.25474372e-20
7.21796959e-20
7.17599956e-20
7.1299864e-20
7.08079345e-20
7.02928297e-20
6.97612449e-20
6.9217815e-20
6.86671447e-20
6.81129287e-20
6.75599143e-20
6.70406814e-20
6.77097192e-20
1.14589021e-19
1.92853917e-18
6.91492897e-17
2.43185737e-15
7.88751509e-14
2.19622646e-12
4.51386216e-11
1.14462175e-20
2.20837763e-20
3.13324637e-20
3.91307039e-20
4.56337469e-20
5.10415173e-20
5.55415775e-20
5.9283247e-20
6.23858828e-20
6.49419986e-20
6.70324937e-20
6.87214591e-20
7.00635757e-20
7.11050116e-20
7.1887095e-20
7.24441008e-20
7.28082347e-20
7.30068933e-20
7.30630398e-20
7.29982117e-20
7.28311551e-20
7.25796316e-20
7.22568763e-20
7.18761093e-20
7.14479934e-20
7.09818361e-20
7.04863559e-20