/*--------------------------------*- C++ -*----------------------------------*\
  =========                 |
  \\      /  F ield         | OpenFOAM: The Open Source CFD Toolbox
   \\    /   O peration     | Website:  https://openfoam.org
    \\  /    A nd           | Version:  6
     \\/     M anipulation  |
\*---------------------------------------------------------------------------*/
FoamFile
{
    version     2.0;
    format      ascii;
    class       volScalarField;
    location    "25000";
    object      HCO;
}
// * * * * * * * * * * * * * * * * * * * * * * * * * * * * * * * * * * * * * //

dimensions      [0 0 0 0 0 0 0];

internalField   nonuniform List<scalar> 
44870
(
1.08230324e-58
4.54449461e-58
4.19884087e-58
3.28030979e-58
2.53969649e-58
2.77902952e-58
4.24420817e-58
5.18258952e-58
3.97060137e-58
4.24678344e-58
6.12169593e-58
5.51816779e-58
5.35707595e-58
4.5272023e-58
5.41876125e-58
5.81052714e-58
5.63361321e-58
6.06930931e-58
4.3997729e-58
7.45690795e-58
6.45944925e-58
5.62384031e-58
7.72535908e-58
7.74649699e-58
3.20547348e-56
8.89047448e-54
2.58941925e-51
7.73336051e-49
2.36697862e-46
7.41162684e-44
2.37149403e-41
7.73169039e-39
2.56184733e-36
8.58215818e-34
2.88965064e-31
9.67390044e-29
3.1725098e-26
9.91836013e-24
2.80565135e-21
6.53845108e-19
1.49053519e-58
1.37232773e-58
3.42723802e-58
2.63682527e-58
4.2524946e-58
4.93887727e-58
4.28124711e-58
4.22030921e-58
3.92537132e-58
3.59659245e-58
5.95126582e-58
5.62461539e-58
6.780753e-58
4.58546097e-58
3.70616683e-58
3.9058106e-58
4.34125624e-58
3.13944662e-58
3.51089769e-58
5.35984042e-58
4.62491111e-58
3.69297192e-58
3.29566372e-58
6.35012344e-58
7.51441946e-57
2.34107122e-54
8.29547009e-52
3.07552234e-49
1.19052208e-46
4.79673238e-44
2.00742753e-41
8.69474038e-39
3.88672787e-36
1.78336365e-33
8.35225999e-31
3.9510051e-28
1.86234448e-25
8.5491865e-23
3.64361462e-20
1.35949563e-17
2.77494988e-58
5.43798241e-58
8.13918949e-58
5.38681286e-58
5.90116751e-58
6.05545538e-58
5.93949459e-58
5.279281e-58
4.77457749e-58
3.68440301e-58
4.00404622e-58
7.20916071e-58
5.29098324e-58
5.3049329e-58
5.29895251e-58
6.06578171e-58
6.68251244e-58
4.28643076e-58
2.45676121e-58
2.50196672e-58
7.4925041e-58
6.61005976e-58
5.47293634e-58
3.76305074e-58
5.67558748e-58
5.24817326e-56
2.37361738e-53
1.31628472e-50
8.6130767e-48
6.36453289e-45
5.03286516e-42
4.14530288e-39
3.45470364e-36
2.89261297e-33
2.38403015e-30
1.93297335e-27
1.50579678e-24
1.126984e-21
7.67821701e-19
4.74048758e-16
1.87361557e-58
3.80442073e-58
3.23886054e-58
6.2130398e-58
3.96541826e-58
3.46377717e-58
2.45246093e-58
1.53493016e-58
3.11129987e-58
1.88220814e-58
1.93044858e-58
2.42505689e-58
1.83260985e-58
1.33903238e-58
2.03191666e-58
3.07500967e-58
3.17207595e-58
1.82924117e-58
6.30980142e-58
6.38256365e-58
5.62880611e-58
3.21211359e-58
6.25840372e-58
1.23963117e-57
1.08816613e-57
3.28409748e-56
3.29517055e-53
3.46435283e-50
3.69485815e-47
3.98401134e-44
4.28303823e-41
4.58259438e-38
4.80833153e-35
4.94793944e-32
4.92005081e-29
4.73134775e-26
4.32817758e-23
3.76076892e-20
3.00166864e-17
2.15772019e-14
6.76268575e-58
1.62898376e-57
6.17973241e-58
6.99939352e-58
2.7693568e-58
6.73885884e-58
2.2950139e-58
2.25315351e-58
5.42335945e-58
8.38279929e-58
5.52562398e-58
3.13100401e-58
1.39698822e-58
1.2783694e-58
1.63191836e-58
6.25674195e-59
1.08784926e-57
2.29931652e-58
5.44323255e-59
1.60815791e-59
7.60111641e-60
7.80334695e-60
1.22517697e-59
8.63488533e-58
3.01654406e-57
1.14861449e-54
1.06914249e-51
1.00729807e-48
9.58827605e-46
9.20262128e-43
8.89621803e-40
8.64678436e-37
8.44444183e-34
8.27463369e-31
8.13370605e-28
8.01244588e-25
7.90858916e-22
7.8175146e-19
7.73648591e-16
7.71210748e-13
5.3752938e-17
1.17822667e-16
1.62010204e-16
1.83132602e-16
1.86000492e-16
1.7847364e-16
1.6914323e-16
1.64711989e-16
1.67813887e-16
1.7882316e-16
1.96294983e-16
2.20560535e-16
2.52701083e-16
2.96670772e-16
3.56508566e-16
4.36511831e-16
5.41778221e-16
6.75819651e-16
8.47294959e-16
1.06293282e-15
1.33798748e-15
1.68900041e-15
2.13885259e-15
2.71803696e-15
3.46597906e-15
4.43694313e-15
5.68369765e-15
7.32203609e-15
9.4236853e-15
1.21925524e-14
1.57944343e-14
2.04962227e-14
2.66733453e-14
3.46884877e-14
4.52455932e-14
5.89483358e-14
7.69563316e-14
1.00333015e-13
1.30841062e-13
1.70333646e-13
2.2147669e-13
2.8743496e-13
3.72223162e-13
4.80568833e-13
6.18788893e-13
7.93471271e-13
1.01264094e-12
1.28573504e-12
1.62389518e-12
2.04043135e-12
2.55105087e-12
3.17476166e-12
3.93412412e-12
4.85693753e-12
5.97660953e-12
7.33467687e-12
8.98152212e-12
1.09795347e-11
1.34044322e-11
1.63479932e-11
1.99197769e-11
2.42484164e-11
2.9486898e-11
3.58135902e-11
4.34498895e-11
5.26572697e-11
6.37772098e-11
7.72239204e-11
9.35383832e-11
1.13366157e-10
1.37509482e-10
1.66917281e-10
2.02671352e-10
2.46118395e-10
2.98598847e-10
3.61996006e-10
4.3784151e-10
5.28248032e-10
6.35294941e-10
7.61309337e-10
9.08748625e-10
1.08033619e-09
1.27935337e-09
1.50965415e-09
1.7760666e-09
2.08442387e-09
2.44260667e-09
2.85981971e-09
3.34774889e-09
3.92068785e-09
4.59532187e-09
5.39157103e-09
6.33197686e-09
7.44270564e-09
8.75424742e-09
1.03024911e-08
1.21298976e-08
1.42873965e-08
1.68361137e-08
1.98505932e-08
2.34203528e-08
2.76526128e-08
3.26756357e-08
3.86450293e-08
4.57460118e-08
5.42079227e-08
6.43139595e-08
7.64100006e-08
9.09372216e-08
1.08441663e-07
1.2961256e-07
1.55308475e-07
1.86593823e-07
2.24786406e-07
2.71475447e-07
3.28515912e-07
3.97969138e-07
4.81927066e-07
5.82122852e-07
6.99187676e-07
8.31422433e-07
9.73122736e-07
1.11316027e-06
1.23548893e-06
1.32316177e-06
1.36490244e-06
1.35942744e-06
1.31439554e-06
1.24169175e-06
1.15302437e-06
1.05773064e-06
9.62373597e-07
8.71094797e-07
7.86257743e-07
7.09052444e-07
6.39869579e-07
5.78635163e-07
5.24859314e-07
4.77357532e-07
4.35088808e-07
3.9398654e-07
3.51804859e-07
3.02440253e-07
2.43276703e-07
1.87493106e-07
1.46193191e-07
1.17800561e-07
9.72072445e-08
7.96783224e-08
6.72645612e-08
5.78108442e-08
4.99538544e-08
4.30585085e-08
3.68692804e-08
3.13194724e-08
2.64471983e-08
2.22201552e-08
1.85784577e-08
1.54591412e-08
1.28010653e-08
1.05464471e-08
8.64672815e-09
7.05655107e-09
5.73396564e-09
4.64048547e-09
3.74110326e-09
3.00526715e-09
2.40652459e-09
1.92175526e-09
1.53102469e-09
1.21735968e-09
9.66449818e-10
7.66347318e-10
6.07173073e-10
4.80841898e-10
3.80769529e-10
3.0158816e-10
2.38991681e-10
1.89535157e-10
1.50470589e-10
1.1961328e-10
9.5230965e-11
7.59534079e-11
6.06994787e-11
4.86173658e-11
3.90354766e-11
3.1424403e-11
2.53682916e-11
2.05414518e-11
1.66873168e-11
1.35998945e-11
1.11257761e-11
9.13394044e-12
7.52971312e-12
6.2339063e-12
5.18205613e-12
4.32415766e-12
3.62390845e-12
3.05255076e-12
2.58355074e-12
2.19693129e-12
1.87601882e-12
1.61084719e-12
1.39107897e-12
1.20787095e-12
1.05459694e-12
9.25426023e-13
8.17603187e-13
7.26621237e-13
6.49042053e-13
5.82348522e-13
5.2480414e-13
4.75241932e-13
4.32119154e-13
3.94300032e-13
3.60790175e-13
3.3101478e-13
3.04266504e-13
2.80285339e-13
2.59028562e-13
2.39653353e-13
2.22050673e-13
2.06049666e-13
1.91402338e-13
1.77930453e-13
1.65497366e-13
1.53992424e-13
1.43311776e-13
1.33366111e-13
1.24101075e-13
1.15486148e-13
1.07496991e-13
1.00107508e-13
9.32855936e-14
8.69919019e-14
8.11834778e-14
7.58206078e-14
7.08534416e-14
6.61956258e-14
6.18425477e-14
5.77688092e-14
5.39468524e-14
5.03537486e-14
4.69719915e-14
4.37878671e-14
4.07898736e-14
3.79677704e-14
3.53121918e-14
3.2814644e-14
3.04677392e-14
2.82655427e-14
2.6203873e-14
2.42803241e-14
2.24937723e-14
2.08428249e-14
1.93191471e-14
1.79384031e-14
1.66805086e-14
1.5536788e-14
1.44974323e-14
1.35517912e-14
1.26891986e-14
1.18995399e-14
1.11737136e-14
1.05041431e-14
9.88556123e-15
9.31664777e-15
8.80379005e-15
8.37016375e-15
8.0773323e-15
1.55296129e-15
2.52375042e-15
2.65791446e-15
2.40924855e-15
2.04760379e-15
1.74902554e-15
1.63832778e-15
1.75011919e-15
2.02683363e-15
2.40785928e-15
2.84692282e-15
3.37789079e-15
4.06357037e-15
5.01175916e-15
6.30315427e-15
8.00276258e-15
1.0185155e-14
1.2901578e-14
1.63176261e-14
2.0570767e-14
2.59648165e-14
3.28047099e-14
4.14427884e-14
5.24201817e-14
6.61501293e-14
8.35533319e-14
1.05236036e-13
1.32520166e-13
1.66321469e-13
2.08425039e-13
2.60259889e-13
3.23911669e-13
4.01516275e-13
4.95560598e-13
6.09251574e-13
7.456917e-13
9.09276429e-13
1.10381916e-12
1.33502465e-12
1.60764782e-12
1.92876152e-12
2.30449079e-12
2.74324517e-12
3.25265285e-12
3.84513426e-12
4.53177172e-12
5.32784654e-12
6.25242023e-12
7.32860657e-12
8.58381703e-12
1.00495798e-11
1.1762827e-11
1.3766418e-11
1.61120036e-11
1.88610761e-11
2.20896148e-11
2.58897659e-11
3.03748906e-11
3.56786432e-11
4.19562592e-11
4.93813846e-11
5.81500849e-11
6.8485475e-11
8.06498675e-11
9.4961801e-11
1.11790604e-10
1.31618465e-10
1.55009131e-10
1.82672971e-10
2.1542239e-10
2.54236883e-10
3.00238774e-10
3.54682832e-10
4.19117548e-10
4.95043074e-10
5.84586863e-10
6.89374587e-10
8.11734636e-10
9.53901303e-10
1.11845306e-09
1.30805722e-09
1.52582523e-09
1.77559447e-09
2.06189525e-09
2.39042189e-09
2.76812088e-09
3.20415701e-09
3.70913529e-09
4.29614582e-09
4.98111797e-09
5.78207725e-09
6.72019321e-09
7.81963923e-09
9.10830235e-09
1.06186955e-08
1.23890613e-08
1.44646195e-08
1.68995796e-08
1.9758902e-08
2.31218881e-08
2.70829839e-08
3.17549813e-08
3.72726287e-08
4.37989305e-08
5.15269017e-08
6.06961511e-08
7.16007968e-08
8.45997592e-08
1.00149483e-07
1.18811895e-07
1.412896e-07
1.6845417e-07
2.01382553e-07
2.41392858e-07
2.90057137e-07
3.4918498e-07
4.20748544e-07
5.06684672e-07
6.08478041e-07
7.26395615e-07
8.58273883e-07
9.97940688e-07
1.13403219e-06
1.25080898e-06
1.33227967e-06
1.36838857e-06
1.35870394e-06
1.3110836e-06
1.23713092e-06
1.14811884e-06
1.05300446e-06
9.5809252e-07
8.67351394e-07
7.83046059e-07
7.06327926e-07
6.37563841e-07
5.76681811e-07
5.23173329e-07
4.75708347e-07
4.33015665e-07
3.91507565e-07
3.48512181e-07
2.97724708e-07
2.38493676e-07
1.84157372e-07
1.44190413e-07
1.16524483e-07
9.63160838e-08
7.91505429e-08
6.68808348e-08
5.74599164e-08
4.96131203e-08
4.27272706e-08
3.65531488e-08
3.10399437e-08
2.62110797e-08
2.20237871e-08
1.84166427e-08
1.53267935e-08
1.26938212e-08
1.04602759e-08
8.57785708e-09
7.00179992e-09
5.69067749e-09
4.60647273e-09
3.71455931e-09
2.98463674e-09
2.39054904e-09
1.90942646e-09
1.52153991e-09
1.21008348e-09
9.60881915e-10
7.62095692e-10
6.03931562e-10
4.78374139e-10
3.78894427e-10
3.00163342e-10
2.37909131e-10
1.88712585e-10
1.49845344e-10
1.19137772e-10
9.48690235e-11
7.56775022e-11
6.04887682e-11
4.8456239e-11
3.89121622e-11
3.13297715e-11
2.52952862e-11
2.04849618e-11
1.6643793e-11
1.35658009e-11
1.10995572e-11
9.11319175e-12
7.51341326e-12
6.22139529e-12
5.17240124e-12
4.31641331e-12
3.61751739e-12
3.04757945e-12
2.5798526e-12
2.19413378e-12
1.8736937e-12
1.60886407e-12
1.3896014e-12
1.20685339e-12
1.05384007e-12
9.24735143e-13
8.1701679e-13
7.26219737e-13
6.48784327e-13
5.82149962e-13
5.24611622e-13
4.7509178e-13
4.32038386e-13
3.94268022e-13
3.60771606e-13
3.30996565e-13
3.04256836e-13
2.80281583e-13
2.59055623e-13
2.39673829e-13
2.22064204e-13
2.06062259e-13
1.91415609e-13
1.77940982e-13
1.65502597e-13
1.53992859e-13
1.43308862e-13
1.33360066e-13
1.24091353e-13
1.15472707e-13
1.07480126e-13
1.00087323e-13
9.32620135e-14
8.69649895e-14
8.11535538e-14
7.5788356e-14
7.0821641e-14
6.61608243e-14
6.18066375e-14
5.77328839e-14
5.39113639e-14
5.03190057e-14
4.69382717e-14
4.37554081e-14
4.07588555e-14
3.79383131e-14
3.52843647e-14
3.27884801e-14
3.0443247e-14
2.82427141e-14
2.61826861e-14
2.42607433e-14
2.24757481e-14
2.08262912e-14
1.93035334e-14
1.79247923e-14
1.66680065e-14
1.5525365e-14
1.44870147e-14
1.35422856e-14
1.26805092e-14
1.1891575e-14
1.1166387e-14
1.04973769e-14
9.87928838e-15
9.31081018e-15
8.79833334e-15
8.36502458e-15
8.07239312e-15
8.92984614e-14
1.02879684e-13
8.0094124e-14
5.74995407e-14
4.2116929e-14
3.69278525e-14
4.38833177e-14
5.88802109e-14
7.57655754e-14
9.17257871e-14
1.06870464e-13
1.24898594e-13
1.49856215e-13
1.84780208e-13
2.30325774e-13
2.86130896e-13
3.51812894e-13
4.2767126e-13
5.15867654e-13
6.19929622e-13
7.44204826e-13
8.91799839e-13
1.06495226e-12
1.26664465e-12
1.49977833e-12
1.76956479e-12
2.07869559e-12
2.43204557e-12
2.83156299e-12
3.2821355e-12
3.78614517e-12
4.34832415e-12
4.97417709e-12
5.67339059e-12
6.45761494e-12
7.33999116e-12
8.33656027e-12
9.46281538e-12
1.07393788e-11
1.21806479e-11
1.38088333e-11
1.56391747e-11
1.77010929e-11
2.00174421e-11
2.26373692e-11
2.56044793e-11
2.89811641e-11
3.28401371e-11
3.7257721e-11
4.2309575e-11
4.80699079e-11
5.46192598e-11
6.20495091e-11
7.04728367e-11
8.00261085e-11
9.088358e-11
1.03262477e-10
1.17426272e-10
1.33663553e-10
1.52275747e-10
1.73561326e-10
1.97848597e-10
2.25505218e-10
2.57006808e-10
2.9289781e-10
3.33812324e-10
3.80583051e-10
4.34090291e-10
4.95380333e-10
5.65566384e-10
6.45943948e-10
7.3795513e-10
8.43209092e-10
9.63720621e-10
1.10139161e-09
1.25894994e-09
1.43832322e-09
1.64238531e-09
1.87380958e-09
2.13579478e-09
2.43167077e-09
2.76557214e-09
3.14268452e-09
3.56924857e-09
4.05305507e-09
4.60371411e-09
5.23317082e-09
5.95536369e-09
6.78637479e-09
7.74501563e-09
8.85246786e-09
1.01329211e-08
1.16138762e-08
1.33270883e-08
1.53096778e-08
1.76052163e-08
2.02651819e-08
2.33512156e-08
2.69369996e-08
3.11125162e-08
3.59830525e-08
4.16738283e-08
4.83339925e-08
5.61426869e-08
6.53098668e-08
7.60970392e-08
8.88219536e-08
1.03872259e-07
1.2173481e-07
1.43003639e-07
1.68406102e-07
1.98839684e-07
2.35395919e-07
2.79382044e-07
3.32317103e-07
3.95889318e-07
4.71849764e-07
5.6176728e-07
6.6655727e-07
7.85682708e-07
9.16007108e-07
1.05045917e-06
1.17736676e-06
1.28186332e-06
1.35009341e-06
1.3744886e-06
1.35620928e-06
1.3033847e-06
1.22697434e-06
1.1373418e-06
1.04266797e-06
9.48736672e-07
8.59154374e-07
7.75983245e-07
7.00303378e-07
6.32426946e-07
5.72290727e-07
5.19338624e-07
4.71870387e-07
4.27995012e-07
3.85646996e-07
3.40084989e-07
2.87032217e-07
2.28327183e-07
1.77178394e-07
1.39994419e-07
1.13800105e-07
9.43885245e-08
7.80756455e-08
6.60296158e-08
5.66686825e-08
4.88486452e-08
4.19923398e-08
3.58600804e-08
3.04364627e-08
2.57020847e-08
2.16001775e-08
1.8067225e-08
1.50407238e-08
1.24616431e-08
1.02736154e-08
8.42860213e-09
6.88309098e-09
5.59678032e-09
4.53265035e-09
3.65691373e-09
2.9398197e-09
2.35583177e-09
1.88262393e-09
1.50091244e-09
1.19425324e-09
9.48763718e-10
7.52838875e-10
5.9687138e-10
4.72997063e-10
3.74807743e-10
2.97056622e-10
2.35547858e-10
1.86917815e-10
1.484807e-10
1.1809953e-10
9.40784164e-11
7.50747447e-11
6.00285114e-11
4.81041727e-11
3.86423747e-11
3.11226194e-11
2.5135811e-11
2.03618182e-11
1.65485827e-11
1.34931709e-11
1.10419922e-11
9.06826597e-12
7.47815152e-12
6.19376866e-12
5.15074304e-12
4.29946479e-12
3.60406896e-12
3.03693407e-12
2.57146805e-12
2.187655e-12
1.86869744e-12
1.60487604e-12
1.3864562e-12
1.20443022e-12
1.05201534e-12
9.23317805e-13
8.15904896e-13
7.25356565e-13
6.48117759e-13
5.8166154e-13
5.24245368e-13
4.74823464e-13
4.31852814e-13
3.94150187e-13
3.60710577e-13
3.30976716e-13
3.04294613e-13
2.80387685e-13
2.5908904e-13
2.39710058e-13
2.22097498e-13
2.06089274e-13
1.91436496e-13
1.77955264e-13
1.65509435e-13
1.53991331e-13
1.43298852e-13
1.33342282e-13
1.24066217e-13
1.15440381e-13
1.07440672e-13
1.00040702e-13
9.32082219e-14
8.69043002e-14
8.10866208e-14
7.57166233e-14
7.07512895e-14
6.60837276e-14
6.17273949e-14
5.76537663e-14
5.38332842e-14
5.02426124e-14
4.68641632e-14
4.36840974e-14
4.06907292e-14
3.78736279e-14
3.52232685e-14
3.27310408e-14
3.03894787e-14
2.81925939e-14
2.61361621e-14
2.42177352e-14
2.24361466e-14
2.07899556e-14
1.92719489e-14
1.78949715e-14
1.66405185e-14
1.55002542e-14
1.44641184e-14
1.35213981e-14
1.26614191e-14
1.18740786e-14
1.11502954e-14
1.04825206e-14
9.86551923e-15
9.29799843e-15
8.78635836e-15
8.35374777e-15
8.0615725e-15
7.45689078e-12
5.7308605e-12
3.44244233e-12
2.11008492e-12
1.514892e-12
1.63363625e-12
2.41924815e-12
3.28161572e-12
3.83987715e-12
4.11725405e-12
4.28321673e-12
4.57691969e-12
5.12117099e-12
5.8846602e-12
6.74917873e-12
7.61099197e-12
8.41286581e-12
9.16202657e-12
9.90506349e-12
1.07335069e-11
1.16925388e-11
1.27650121e-11
1.39379322e-11
1.52213819e-11
1.66639876e-11
1.83033099e-11
2.01485323e-11
2.22061748e-11
2.44804804e-11
2.69871222e-11
2.97291051e-11
3.2739844e-11
3.60804099e-11
3.98423477e-11
4.41100906e-11
4.89453675e-11
5.44067985e-11
6.0545669e-11
6.74079325e-11
7.49915086e-11
8.33307877e-11
9.24391228e-11
1.0242441e-10
1.13352063e-10
1.25428842e-10
1.38832408e-10
1.53813748e-10
1.70609389e-10
1.89379775e-10
2.1020723e-10
2.3314246e-10
2.58269119e-10
2.85731143e-10
3.15749536e-10
3.48632437e-10
3.84820723e-10
4.24898807e-10
4.69514154e-10
5.19234489e-10
5.74489295e-10
6.35595852e-10
7.02978091e-10
7.77227145e-10
8.59233052e-10
9.49957725e-10
1.05050698e-09
1.16225183e-09
1.2863901e-09
1.42428436e-09
1.5772743e-09
1.74699813e-09
1.93540932e-09
2.1448766e-09
2.37852833e-09
2.63927255e-09
2.93108468e-09
3.25659908e-09
3.6196153e-09
4.02357981e-09
4.4726363e-09
4.97164961e-09
5.52650051e-09
6.14463604e-09
6.83547363e-09
7.61038726e-09
8.48349008e-09
9.47123678e-09
1.05922042e-08
1.18670468e-08
1.33188833e-08
1.49732789e-08
1.68590203e-08
1.90086828e-08
2.14601619e-08
2.4257964e-08
2.74541637e-08
3.11102713e-08
3.52998506e-08
4.01106351e-08
4.5649064e-08
5.20369878e-08
5.94189561e-08
6.79660762e-08
7.78813133e-08
8.93995411e-08
1.02812098e-07
1.18472847e-07
1.36811101e-07
1.58351857e-07
1.83727242e-07
2.13692542e-07
2.49162491e-07
2.91225087e-07
3.41137722e-07
4.0029265e-07
4.70135046e-07
5.52015524e-07
6.46878749e-07
7.54730438e-07
8.73835208e-07
9.99755741e-07
1.12444059e-06
1.23629455e-06
1.32220631e-06
1.37152882e-06
1.37990374e-06
1.35022501e-06
1.29068283e-06
1.21123157e-06
1.12098359e-06
1.02708439e-06
9.34645235e-07
8.46760422e-07
7.65219851e-07
6.9103427e-07
6.24417571e-07
5.65335389e-07
5.13136075e-07
4.64575618e-07
4.1979152e-07
3.74795513e-07
3.2571635e-07
2.70384535e-07
2.13932959e-07
1.6770363e-07
1.34128798e-07
1.09861908e-07
9.15372643e-08
7.65924318e-08
6.46847652e-08
5.54087755e-08
4.76452983e-08
4.08539489e-08
3.48338341e-08
2.95515874e-08
2.49562575e-08
2.09785528e-08
1.75535168e-08
1.46194099e-08
1.21188361e-08
9.99767261e-09
8.20777058e-09
6.7073126e-09
5.45763365e-09
4.42313342e-09
3.57130765e-09
2.87323145e-09
2.30421724e-09
1.84274969e-09
1.47020473e-09
1.17067154e-09
9.30699862e-10
7.39031437e-10
5.86333564e-10
4.64974427e-10
3.68701192e-10
2.92410832e-10
2.32014638e-10
1.84230712e-10
1.46436398e-10
1.16543244e-10
9.28926365e-11
7.417036e-11
5.93377549e-11
4.75754542e-11
3.82367845e-11
3.08110733e-11
2.48962476e-11
2.01769466e-11
1.64051596e-11
1.33826145e-11
1.09555166e-11
9.00112771e-12
7.42541789e-12
6.15186015e-12
5.1176594e-12
4.27402369e-12
3.58433915e-12
3.02110377e-12
2.55852274e-12
2.17755564e-12
1.86127931e-12
1.59921812e-12
1.38180792e-12
1.20058266e-12
1.04910102e-12
9.21275046e-13
8.14400044e-13
7.24075657e-13
6.4701238e-13
5.80868908e-13
5.2374254e-13
4.7447568e-13
4.31561915e-13
3.93921069e-13
3.60592444e-13
3.30955984e-13
3.04391089e-13
2.80513731e-13
2.59124202e-13
2.39751661e-13
2.22146292e-13
2.06125646e-13
1.91456032e-13
1.77963811e-13
1.65510874e-13
1.53982693e-13
1.4327664e-13
1.33307403e-13
1.24020888e-13
1.15385384e-13
1.07375653e-13
9.99653183e-14
9.31225946e-14
8.68089746e-14
8.09825002e-14
7.56056229e-14
7.06437027e-14
6.5965218e-14
6.1606309e-14
5.75332258e-14
5.37144929e-14
5.01264938e-14
4.67516022e-14
4.35758533e-14
4.05873699e-14
3.77755279e-14
3.51306407e-14
3.26439794e-14
3.03079965e-14
2.81166494e-14
2.60656708e-14
2.41525711e-14
2.23761433e-14
2.07349708e-14
1.9223884e-14
1.78496074e-14
1.65988424e-14
1.54622026e-14
1.44294267e-14
1.3489752e-14
1.26324961e-14
1.18475687e-14
1.11259142e-14
1.04600131e-14
9.84466022e-15
9.27859009e-15
8.76821743e-15
8.33666504e-15
8.04519408e-15
7.95714838e-10
3.15409275e-10
1.26901963e-10
6.65633712e-11
4.93235792e-11
6.84776896e-11
1.11551042e-10
1.3227788e-10
1.25876344e-10
1.08622425e-10
9.24151959e-11
8.59073986e-11
8.86476405e-11
9.50313647e-11
1.00257592e-10
1.024468e-10
1.02084348e-10
1.0089241e-10
1.00489818e-10
1.03214382e-10
1.08571713e-10
1.1510946e-10
1.22314851e-10
1.30602943e-10
1.40677574e-10
1.52467495e-10
1.65461973e-10
1.79360253e-10
1.94236256e-10
2.09969021e-10
2.26494549e-10
2.44194191e-10
2.6373098e-10
2.85769803e-10
3.10539669e-10
3.37860547e-10
3.67713509e-10
4.00129546e-10
4.34892414e-10
4.71537467e-10
5.09951296e-10
5.50150623e-10
5.92699897e-10
6.37825397e-10
6.86524152e-10
7.39631937e-10
7.98185825e-10
8.62661913e-10
9.32729889e-10
1.00765647e-09
1.08684123e-09
1.17014159e-09
1.25780984e-09
1.35038757e-09
1.44873734e-09
1.55432266e-09
1.66904082e-09
1.79441955e-09
1.93102332e-09
2.07854316e-09
2.23644175e-09
2.40511811e-09
2.58591613e-09
2.78057825e-09
2.99126867e-09
3.21972399e-09
3.46764174e-09
3.7361441e-09
4.02658156e-09
4.34024375e-09
4.67947626e-09
5.04779734e-09
5.44994117e-09
5.89207441e-09
6.37939047e-09
6.91786993e-09
7.51099017e-09
8.16309694e-09
8.87818214e-09
9.66159679e-09
1.05201684e-08
1.14625194e-08
1.24997228e-08
1.36462586e-08
1.49192013e-08
1.63398928e-08
1.79313426e-08
1.97184233e-08
2.17278499e-08
2.39881649e-08
2.65302987e-08
2.9388875e-08
3.26033107e-08
3.62201855e-08
4.02945595e-08
4.48907793e-08
5.00847354e-08
5.59673446e-08
6.26465771e-08
7.02495053e-08
7.89218445e-08
8.88339762e-08
1.00185263e-07
1.13208122e-07
1.28166123e-07
1.45384989e-07
1.65265303e-07
1.88282836e-07
2.14999767e-07
2.46074801e-07
2.822658e-07
3.24474858e-07
3.73733704e-07
4.31163921e-07
4.97898395e-07
5.74949364e-07
6.63026262e-07
7.6214961e-07
8.71087425e-07
9.86646327e-07
1.10310866e-06
1.21188691e-06
1.30237295e-06
1.3642674e-06
1.39084392e-06
1.38095526e-06
1.33875794e-06
1.27211522e-06
1.18967085e-06
1.09909378e-06
1.00637742e-06
9.15933369e-07
8.30201248e-07
7.5067302e-07
6.78346377e-07
6.1324521e-07
5.5541299e-07
5.02951384e-07
4.53315901e-07
4.06074938e-07
3.57348253e-07
3.04338101e-07
2.48476334e-07
1.96974303e-07
1.56756546e-07
1.27059966e-07
1.04912428e-07
8.78413944e-08
7.3997339e-08
6.27239648e-08
5.36021712e-08
4.59558394e-08
3.93340142e-08
3.35120542e-08
2.84266028e-08
2.40072387e-08
2.01858636e-08
1.68966924e-08
1.40794069e-08
1.16783967e-08
9.64214927e-09
7.92292108e-09
6.48033245e-09
5.27776198e-09
4.28139671e-09
3.46033346e-09
2.78684475e-09
2.23719597e-09
1.79092485e-09
1.43025656e-09
1.13996532e-09
9.07156976e-10
7.21019853e-10
5.72574478e-10
4.54492436e-10
3.60713409e-10
2.86328726e-10
2.27385191e-10
1.80707062e-10
1.43753546e-10
1.1449918e-10
9.13339474e-11
7.29807831e-11
5.84287231e-11
4.68791764e-11
3.77020694e-11
3.04000503e-11
2.45803541e-11
1.99333056e-11
1.62157599e-11
1.32352753e-11
1.0841167e-11
8.91280789e-12
7.35613927e-12
6.0963185e-12
5.07350751e-12
4.24040271e-12
3.558712e-12
3.00042889e-12
2.54127376e-12
2.16393025e-12
1.85156227e-12
1.59203501e-12
1.37578728e-12
1.1953861e-12
1.04511138e-12
9.18652854e-13
8.12546384e-13
7.22413412e-13
6.45489938e-13
5.79777575e-13
5.23115893e-13
4.74057726e-13
4.3116844e-13
3.93575928e-13
3.60410108e-13
3.30928834e-13
3.04454447e-13
2.80575203e-13
2.59138668e-13
2.3978811e-13
2.22201347e-13
2.06161253e-13
1.91462954e-13
1.77955336e-13
1.65496345e-13
1.53957036e-13
1.4323265e-13
1.33246223e-13
1.23946853e-13
1.15300071e-13
1.07278357e-13
9.98554637e-14
9.30004858e-14
8.66753959e-14
8.08384606e-14
7.5452965e-14
7.04984735e-14
6.58038587e-14
6.14429047e-14
5.73711845e-14
5.35551044e-14
4.99708892e-14
4.66009211e-14
4.34310749e-14
4.04492199e-14
3.76444786e-14
3.50069561e-14
3.25277686e-14
3.0199264e-14
2.80153295e-14
2.59716433e-14
2.40656621e-14
2.22961274e-14
2.06616368e-14
1.91581254e-14
1.77889059e-14
1.65432496e-14
1.54114758e-14
1.43831852e-14
1.34475704e-14
1.25939419e-14
1.18122273e-14
1.10934071e-14
1.0430003e-14
9.81684664e-15
9.25270847e-15
8.74402346e-15
8.31388122e-15
8.02335424e-15
7.79425652e-08
1.32454598e-08
3.18024068e-09
1.40212602e-09
9.69553969e-10
2.13313643e-09
3.69406657e-09
3.51824485e-09
2.55473962e-09
1.70956622e-09
1.18510151e-09
1.04410011e-09
1.09977954e-09
1.15762845e-09
1.1459199e-09
1.07237487e-09
9.76237256e-10
8.92520749e-10
8.37629593e-10
8.40579758e-10
8.66957956e-10
8.9185665e-10
9.14957479e-10
9.46133638e-10
9.90173195e-10
1.04118393e-09
1.09042867e-09
1.13907671e-09
1.18956302e-09
1.24004551e-09
1.29038402e-09
1.34432885e-09
1.40633899e-09
1.47852663e-09
1.55892226e-09
1.64377099e-09
1.73335906e-09
1.82793232e-09
1.92498016e-09
2.02167037e-09
2.11788105e-09
2.21478559e-09
2.31504662e-09
2.41924064e-09
2.53141049e-09
2.6547603e-09
2.79249677e-09
2.94362617e-09
3.10371146e-09
3.26829609e-09
3.43512478e-09
3.60432278e-09
3.77713075e-09
3.95525056e-09
4.14134714e-09
4.34038748e-09
4.55772594e-09
4.79556053e-09
5.05209204e-09
5.32341795e-09
5.60650182e-09
5.90312502e-09
6.21711892e-09
6.552073e-09
6.91176447e-09
7.29799413e-09
7.71167924e-09
8.15241767e-09
8.62086487e-09
9.11801042e-09
9.64815803e-09
1.02184589e-08
1.08383512e-08
1.15187385e-08
1.22669281e-08
1.30893957e-08
1.3988455e-08
1.49665974e-08
1.60270627e-08
1.71759202e-08
1.84216602e-08
1.97758482e-08
2.12538989e-08
2.28764756e-08
2.46675194e-08
2.66561417e-08
2.88715928e-08
3.13441309e-08
3.41048316e-08
3.7185544e-08
4.06205589e-08
4.44486329e-08
4.87149648e-08
5.34736254e-08
5.87891888e-08
6.47375558e-08
7.1407143e-08
7.89050538e-08
8.73554135e-08
9.69021691e-08
1.07710999e-07
1.19972037e-07
1.33905213e-07
1.49762558e-07
1.67820568e-07
1.88431488e-07
2.1202692e-07
2.39106791e-07
2.70243023e-07
3.06085394e-07
3.4734929e-07
3.94886491e-07
4.49624699e-07
5.12497457e-07
5.84330773e-07
6.65678317e-07
7.56648885e-07
8.56474283e-07
9.629913e-07
1.07209983e-06
1.17763921e-06
1.27134452e-06
1.34404646e-06
1.38780142e-06
1.39848275e-06
1.3765602e-06
1.32642068e-06
1.25550612e-06
1.17147117e-06
1.08100977e-06
9.89364854e-07
9.00565831e-07
8.16480308e-07
7.38433475e-07
6.6750773e-07
6.03449267e-07
5.45477664e-07
4.92649625e-07
4.4211411e-07
3.9282612e-07
3.4119304e-07
2.86258663e-07
2.32156471e-07
1.85349081e-07
1.49093886e-07
1.21829916e-07
1.01107914e-07
8.4922383e-08
7.17558699e-08
6.09387587e-08
5.20606528e-08
4.45904226e-08
3.8127803e-08
3.24811246e-08
2.75552922e-08
2.32734459e-08
1.95707912e-08
1.63852475e-08
1.36576336e-08
1.13334376e-08
9.36271261e-09
7.69870158e-09
6.30141227e-09
5.13578541e-09
4.16936954e-09
3.3724714e-09
2.7183539e-09
2.18399577e-09
1.74973837e-09
1.39847086e-09
1.11550446e-09
8.88380665e-10
7.06638668e-10
5.61575065e-10
4.4610162e-10
3.54313346e-10
2.8145041e-10
2.23668111e-10
1.77874908e-10
1.41595057e-10
1.12853119e-10
9.0077552e-11
7.20208363e-11
5.76944031e-11
4.63164807e-11
3.72699091e-11
3.00674876e-11
2.43241413e-11
1.97355538e-11
1.60624898e-11
1.3116108e-11
1.0748256e-11
8.84050747e-12
7.29965011e-12
6.0517625e-12
5.03817359e-12
4.21281034e-12
3.53724475e-12
2.98350004e-12
2.527776e-12
2.15323087e-12
1.843425e-12
1.58576199e-12
1.37084751e-12
1.19145413e-12
1.04203095e-12
9.16382733e-13
8.10836192e-13
7.21059972e-13
6.44391559e-13
5.78943996e-13
5.22531188e-13
4.73636332e-13
4.30854398e-13
3.93344196e-13
3.60265071e-13
3.30856293e-13
3.04438979e-13
2.80587709e-13
2.5914862e-13
2.39802887e-13
2.22217149e-13
2.06165239e-13
1.91453236e-13
1.77934663e-13
1.65465948e-13
1.53915627e-13
1.43178987e-13
1.33181421e-13
1.23872576e-13
1.15217076e-13
1.07186832e-13
9.9755461e-14
9.28921183e-14
8.65590027e-14
8.07146644e-14
7.5322474e-14
7.03775958e-14
6.56674776e-14
6.13065031e-14
5.72365266e-14
5.34229512e-14
4.98420843e-14
4.64763626e-14
4.33115373e-14
4.03352714e-14
3.75364813e-14
3.49051037e-14
3.24321331e-14
3.01098359e-14
2.7932044e-14
2.58943916e-14
2.39942923e-14
2.22304446e-14
2.06014473e-14
1.9103614e-14
1.77389701e-14
1.64976071e-14
1.5369842e-14
1.43452258e-14
1.3412931e-14
1.25622691e-14
1.17831838e-14
1.10666831e-14
1.04053226e-14
9.79396688e-15
9.23141588e-15
8.72411824e-15
8.2951355e-15
8.00538767e-15
1.26850036e-10
1.20006941e-10
9.35208151e-11
7.03044301e-11
5.27054668e-11
3.97976232e-11
3.04133563e-11
2.356958e-11
1.85636085e-11
1.48572588e-11
1.20726309e-11
9.96522471e-12
8.36016976e-12
7.11787799e-12
6.14197738e-12
5.36952894e-12
4.75416158e-12
4.2569273e-12
3.8506086e-12
3.51673775e-12
3.24045625e-12
3.00923392e-12
2.8142752e-12
2.64926336e-12
2.50877329e-12
2.38819705e-12
2.28420441e-12
2.1941186e-12
2.11584506e-12
2.04766468e-12
1.98808763e-12
1.93584366e-12
1.89010106e-12
1.85017467e-12
1.81558571e-12
1.78594938e-12
1.75043931e-12
1.58932818e-12
4.93591708e-11
4.21761171e-09
4.53855367e-11
6.29186797e-11
6.37348474e-11
5.84326307e-11
5.13616325e-11
4.42361363e-11
3.75938423e-11
3.16385063e-11
2.64438095e-11
2.20432157e-11
1.83917538e-11
1.53990647e-11
1.29689954e-11
1.10031134e-11
9.41054337e-12
8.1182296e-12
7.06879801e-12
6.21182767e-12
5.50688691e-12
4.92440855e-12
4.44143463e-12
4.03796457e-12
3.69854073e-12
3.41187867e-12
3.16892674e-12
2.96165378e-12
2.78392624e-12
2.63086128e-12
2.49855115e-12
2.38390505e-12
2.28432767e-12
2.19746374e-12
2.12165927e-12
2.05561373e-12
1.99831707e-12
1.94914413e-12
1.9059772e-12
1.82409936e-12
6.90292409e-12
3.745966e-10
1.72105527e-11
2.98068411e-11
3.607354e-11
3.80986426e-11
3.76399865e-11
3.58412657e-11
3.33467069e-11
3.04972813e-11
2.75093965e-11
2.45520329e-11
2.17397969e-11
1.91382428e-11
1.67843913e-11
1.46940671e-11
1.28615406e-11
1.12692848e-11
9.89614603e-12
8.7189369e-12
7.71237928e-12
6.85276813e-12
6.12006869e-12
5.4959127e-12
4.96334308e-12
4.50815995e-12
4.11893971e-12
3.78557549e-12
3.49944026e-12
3.25306677e-12
3.04024488e-12
2.8559953e-12
2.69636539e-12
2.55774564e-12
2.43713052e-12
2.3320706e-12
2.24062344e-12
2.16114137e-12
2.09233539e-12
2.02756487e-12
2.25764963e-12
3.09903105e-11
1.20214726e-11
2.07769533e-11
2.64275356e-11
2.94823854e-11
3.06205729e-11
3.04467203e-11
2.94214152e-11
2.78618948e-11
2.59864856e-11
2.39490123e-11
2.18605688e-11
1.97998397e-11
1.78220697e-11
1.59657801e-11
1.42540423e-11
1.2696936e-11
1.129665e-11
1.00500417e-11
8.94882953e-12
7.98168568e-12
7.13669334e-12
6.40150927e-12
5.7635873e-12
5.21105963e-12
4.73312383e-12
4.32020429e-12
3.96357193e-12
3.65531571e-12