/*--------------------------------*- C++ -*----------------------------------*\
  =========                 |
  \\      /  F ield         | OpenFOAM: The Open Source CFD Toolbox
   \\    /   O peration     | Website:  https://openfoam.org
    \\  /    A nd           | Version:  6
     \\/     M anipulation  |
\*---------------------------------------------------------------------------*/
FoamFile
{
    version     2.0;
    format      ascii;
    class       volScalarField;
    location    "25000";
    object      HNCO;
}
// * * * * * * * * * * * * * * * * * * * * * * * * * * * * * * * * * * * * * //

dimensions      [0 0 0 0 0 0 0];

internalField   nonuniform List<scalar> 
44870
(
3.99576356e-103
4.93573466e-101
6.06681281e-99
7.54125372e-97
9.48770674e-95
1.20886715e-92
1.56094172e-90
2.04398664e-88
2.71629724e-86
3.66590083e-84
5.02782632e-82
7.011643e-80
9.94717594e-78
1.43607425e-75
2.11023544e-73
3.15656151e-71
4.80605745e-69
7.44758602e-67
1.17423813e-64
1.883265e-62
3.07094269e-60
5.08974844e-58
8.56924898e-56
1.46504096e-53
2.54184838e-51
4.4737774e-49
7.98168947e-47
1.44289547e-44
2.6402073e-42
4.88748246e-40
9.13803178e-38
1.72402115e-35
3.27235523e-33
6.23557936e-31
1.18550306e-28
2.23502486e-26
4.11602599e-24
7.25886077e-22
1.15458144e-19
1.55525572e-17
2.88514706e-103
3.54216004e-101
4.33240002e-99
5.37306001e-97
6.77167977e-95
8.68927591e-93
1.13754106e-90
1.52201128e-88
2.08462225e-86
2.92610825e-84
4.21271825e-82
6.2223844e-80
9.4279949e-78
1.46463208e-75
2.33048702e-73
3.79473543e-71
6.31338656e-69
1.07207156e-66
1.8549292e-64
3.26725711e-62
5.84880146e-60
1.06353229e-57
1.96117293e-55
3.66752308e-53
6.94318314e-51
1.3316055e-48
2.58184106e-46
5.06827538e-44
1.00473486e-41
2.0163409e-39
4.08210533e-37
8.36649696e-35
1.72751006e-32
3.61117743e-30
7.58438411e-28
1.60879991e-25
3.39799676e-23
7.16407133e-21
1.41235147e-18
2.6502755e-16
1.23893071e-103
1.48198896e-101
1.78440129e-99
2.22005932e-97
2.87751267e-95
3.90727512e-93
5.57934814e-91
8.38635733e-89
1.32430669e-86
2.18931544e-84
3.76917704e-82
6.71895528e-80
1.23305171e-77
2.31775972e-75
4.4407225e-73
8.65017801e-71
1.70604008e-68
3.40328839e-66
6.84670698e-64
1.38899971e-61
2.8359599e-59
5.83173907e-57
1.20522993e-54
2.50822956e-52
5.2414137e-50
1.10355449e-47
2.33152739e-45
4.96769196e-43
1.06137507e-40
2.29049788e-38
4.95228342e-36
1.08356493e-33
2.37202964e-31
5.26940132e-29
1.17021235e-26
2.6448884e-24
5.96843318e-22
1.38176653e-19
3.07037902e-17
7.01112829e-15
2.57536828e-104
3.07899031e-102
4.17273236e-100
6.55256622e-98
1.17381684e-95
2.32865624e-93
4.95602794e-91
1.10233027e-88
2.51422458e-86
5.80750081e-84
1.3476926e-81
3.12670565e-79
7.22944576e-77
1.66375961e-74
3.80668651e-72
8.66086709e-70
1.95898889e-67
4.40893133e-65
9.87233702e-63
2.20133675e-60
4.89108102e-58
1.08372225e-55
2.39513113e-53
5.28654185e-51
1.16501523e-48
2.56768002e-46
5.65553326e-44
1.24733236e-41
2.75084833e-39
6.08448396e-37
1.34609899e-34
2.99130083e-32
6.64847544e-30
1.48654933e-27
3.32416122e-25
7.47408647e-23
1.67602015e-20
3.76371546e-18
8.17882648e-16
1.72878963e-13
3.31374339e-105
1.02288384e-102
3.44142779e-100
1.15197711e-97
3.72005386e-95
1.1521039e-92
3.4260055e-90
9.81236527e-88
2.71614822e-85
7.29139307e-83
1.90432787e-80
4.85331832e-78
1.21027039e-75
2.96032757e-73
7.11837327e-71
1.68605314e-68
3.94086599e-66
9.10408552e-64
2.08172889e-61
4.71746931e-59
1.06065357e-56
2.36840454e-54
5.25695883e-52
1.16078811e-49
2.55156216e-47
5.58706617e-45
1.21931574e-42
2.6530027e-40
5.75858219e-38
1.24718887e-35
2.69644971e-33
5.82062836e-31
1.25493702e-28
2.7026067e-26
5.81561464e-24
1.2504467e-21
2.68722875e-19
5.77158112e-17
1.23905671e-14
2.67313718e-12
4.96433114e-16
2.07435798e-15
5.40800124e-15
1.16391588e-14
2.25311985e-14
4.12207543e-14
7.42288213e-14
1.3528433e-13
2.50259702e-13
4.65027622e-13
8.51797567e-13
1.52287131e-12
2.63591093e-12
4.41951982e-12
7.18132015e-12
1.13366891e-11
1.74458203e-11
2.62168315e-11
3.86240942e-11
5.58310576e-11
7.94092171e-11
1.11259749e-10
1.53810902e-10
2.10115472e-10
2.839549e-10
3.80153661e-10
5.04215113e-10
6.64031727e-10
8.67576158e-10
1.12709106e-09
1.45517202e-09
1.86852297e-09
2.3873216e-09
3.03374448e-09
3.83818382e-09
4.83127548e-09
6.05605336e-09
7.55553152e-09
9.38781321e-09
1.16140965e-08
1.43122146e-08
1.75692012e-08
2.14871722e-08
2.61808428e-08
3.17787976e-08
3.84186023e-08
4.62497397e-08
5.54341028e-08
6.61468648e-08
7.85787202e-08
9.29335544e-08
1.09431263e-07
1.28299838e-07
1.49778034e-07
1.74101126e-07
2.0150161e-07
2.32191833e-07
2.66363948e-07
3.04179024e-07
3.45768936e-07
3.91236324e-07
4.40653516e-07
4.94075682e-07
5.51532534e-07
6.13065369e-07
6.78700294e-07
7.48503913e-07
8.22532383e-07
9.00879562e-07
9.8359675e-07
1.07072325e-06
1.16223285e-06
1.25801771e-06
1.35796449e-06
1.46180463e-06
1.56939167e-06
1.68046049e-06
1.79480442e-06
1.91223362e-06
2.03261766e-06
2.1558429e-06
2.28182204e-06
2.41050885e-06
2.5418548e-06
2.67582012e-06
2.81233612e-06
2.95136811e-06
3.09282184e-06
3.23662568e-06
3.38272374e-06
3.53105479e-06
3.68159129e-06
3.83430263e-06
3.98918254e-06
4.1462494e-06
4.30555075e-06
4.46716222e-06
4.63119844e-06
4.79781127e-06
4.96721198e-06
5.1396454e-06
5.31538833e-06
5.49474834e-06
5.67808848e-06
5.86579743e-06
6.0583599e-06
6.25634012e-06
6.46036415e-06
6.67124889e-06
6.88994952e-06
7.11766531e-06
7.3558459e-06
7.60626993e-06
7.87118422e-06
8.15339219e-06
8.45640487e-06
8.78462785e-06
9.1435345e-06
9.53972798e-06
9.98062661e-06
1.04733055e-05
1.10214075e-05
1.16189242e-05
1.22409923e-05
1.28364966e-05
1.3332212e-05
1.36537197e-05
1.37525151e-05
1.36205031e-05
1.3284577e-05
1.27905001e-05
1.21873697e-05
1.15178721e-05
1.08143655e-05
1.00987224e-05
9.38334616e-06
8.6732315e-06
7.96721683e-06
7.25879034e-06
6.54064738e-06
5.78276068e-06
4.96963774e-06
4.11152981e-06
3.26070867e-06
2.49701648e-06
1.86612616e-06
1.37079689e-06
9.95497402e-07
7.19811735e-07
5.19059658e-07
3.74197867e-07
2.70103247e-07
1.95434656e-07
1.41762654e-07
1.03086162e-07
7.5193456e-08
5.50536598e-08
4.0490207e-08
2.99433149e-08
2.22944065e-08
1.6739352e-08
1.26997796e-08
9.75788713e-09
7.61102371e-09
6.039274e-09
4.88266491e-09
4.02617383e-09
3.3869654e-09
2.90534113e-09
2.5384816e-09
2.25581357e-09
2.03569148e-09
1.86293302e-09
1.72700572e-09
1.62049797e-09
1.53824597e-09
1.47693637e-09
1.43426262e-09
1.40856405e-09
1.39860936e-09
1.40341358e-09
1.42210896e-09
1.45385891e-09
1.49780105e-09
1.55301057e-09
1.61848677e-09
1.69316358e-09
1.77592294e-09
1.8655788e-09
1.96090934e-09
2.06070753e-09
2.16392289e-09
2.26944127e-09
2.37605956e-09
2.48270153e-09
2.58858055e-09
2.69313316e-09
2.79532348e-09
2.89418104e-09
2.9892082e-09
3.08015674e-09
3.16714729e-09
3.24947001e-09
3.32677933e-09
3.39924155e-09
3.46682921e-09
3.53011054e-09
3.58830741e-09
3.64148156e-09
3.69017171e-09
3.73460483e-09
3.77503298e-09
3.81122722e-09
3.84361031e-09
3.87245859e-09
3.89815409e-09
3.92078289e-09
3.94034135e-09
3.95741368e-09
3.97226892e-09
3.98500388e-09
3.99572398e-09
4.00452099e-09
4.01152443e-09
4.01682029e-09
4.02049471e-09
4.02263852e-09
4.02336143e-09
4.02278473e-09
4.0210212e-09
4.01816578e-09
4.01429069e-09
4.00944392e-09
4.00365315e-09
3.99693353e-09
3.98929529e-09
3.98074445e-09
3.97127974e-09
3.96100151e-09
3.94994248e-09
3.93814337e-09
3.92567767e-09
3.91262832e-09
3.89908133e-09
3.88512262e-09
3.8708338e-09
3.85628957e-09
3.84154601e-09
3.82663443e-09
3.81155277e-09
3.7962577e-09
3.78066021e-09
3.76462905e-09
3.74800783e-09
3.73064561e-09
3.71238191e-09
3.69343371e-09
3.6737795e-09
3.65361251e-09
3.63320653e-09
3.61284544e-09
3.59279022e-09
3.57325466e-09
3.55439657e-09
3.53632723e-09
3.51914158e-09
3.50298193e-09
3.48817017e-09
3.47549862e-09
3.46688672e-09
1.02434177e-14
3.68024677e-14
8.35954995e-14
1.62848906e-13
2.9305303e-13
5.14250298e-13
9.23678164e-13
1.72952886e-12
3.30108908e-12
6.24024272e-12
1.14118757e-11
2.00553534e-11
3.37804845e-11
5.47901056e-11
8.58787548e-11
1.30635774e-10
1.9366253e-10
2.80467793e-10
3.98181004e-10
5.54739855e-10
7.60181907e-10
1.02593487e-09
1.3653718e-09
1.79495044e-09
2.33188404e-09
2.99913734e-09
3.81925819e-09
4.82214747e-09
6.03764818e-09
7.50330753e-09
9.25596089e-09
1.13392641e-08
1.37974536e-08
1.66795093e-08
2.00385613e-08
2.3929755e-08
2.84172057e-08
3.35635522e-08
3.94456394e-08
4.61351912e-08
5.37205848e-08
6.22819384e-08
7.1912522e-08
8.26993309e-08
9.47341999e-08
1.0810883e-07
1.22919092e-07
1.39266746e-07
1.57259528e-07
1.77011959e-07
1.98643719e-07
2.2228182e-07
2.48057701e-07
2.76110318e-07
3.06582618e-07
3.39624049e-07
3.75383567e-07
4.14009989e-07
4.5564356e-07
5.00415266e-07
5.484404e-07
5.9982072e-07
6.54642819e-07
7.12984557e-07
7.7492394e-07
8.40526252e-07
9.09885128e-07
9.83083314e-07
1.06022042e-06
1.14136136e-06
1.22655446e-06
1.31579173e-06
1.40900309e-06
1.50610146e-06
1.60688962e-06
1.71124644e-06
1.81896999e-06
1.92990202e-06
2.04389481e-06
2.16085556e-06
2.28068606e-06
2.40332257e-06
2.52872974e-06
2.65686079e-06
2.78767155e-06
2.92110013e-06
3.05710385e-06
3.19560421e-06
3.33653516e-06
3.47985712e-06
3.62551848e-06
3.773493e-06
3.92376627e-06
4.07634025e-06
4.23123865e-06
4.38851012e-06
4.54822941e-06
4.71050931e-06
4.87550021e-06
5.04341535e-06
5.2144953e-06
5.38901552e-06
5.5672871e-06
5.74967782e-06
5.9365821e-06
6.12849774e-06
6.32599193e-06
6.52970374e-06
6.74046475e-06
6.95924933e-06
7.18726307e-06
7.42597427e-06
7.67719232e-06
7.94317733e-06
8.22674143e-06
8.53139111e-06
8.86149479e-06
9.22242675e-06
9.62057114e-06
1.00629069e-05
1.05557327e-05
1.1101427e-05
1.16922241e-05
1.23014505e-05
1.2877268e-05
1.33479914e-05
1.36429238e-05
1.37177758e-05
1.35672178e-05
1.32188645e-05
1.27176566e-05
1.21112242e-05
1.14407768e-05
1.07374821e-05
1.00224121e-05
9.30740645e-06
8.59725695e-06
7.89078606e-06
7.18153824e-06
6.459586e-06
5.69768388e-06
4.88329657e-06
4.02902057e-06
3.19040661e-06
2.44295141e-06
1.82701708e-06
1.34351801e-06
9.76983823e-07
7.07364203e-07
5.10820299e-07
3.68740599e-07
2.66481873e-07
1.93032098e-07
1.40154082e-07
1.02006674e-07
7.44675389e-08
5.45636232e-08
4.0158328e-08
2.97181766e-08
2.21418518e-08
1.66364827e-08
1.26310354e-08
9.71265576e-09
7.58201202e-09
6.02148034e-09
4.87257856e-09
4.02129416e-09
3.3855659e-09
2.90624467e-09
2.54090072e-09
2.25923187e-09
2.03977927e-09
1.8674887e-09
1.73191782e-09
1.62569635e-09
1.54368765e-09
1.48261996e-09
1.44018592e-09
1.41472368e-09
1.40499843e-09
1.41001915e-09
1.42891073e-09
1.46082945e-09
1.50490655e-09
1.56021092e-09
1.62573643e-09
1.70041562e-09
1.78313315e-09
1.87270183e-09
1.96789447e-09
2.06751031e-09
2.17050675e-09
2.2757966e-09
2.38214912e-09
2.48847048e-09
2.59402131e-09
2.69828084e-09
2.80020638e-09
2.89874765e-09
2.99342304e-09
3.08406717e-09
3.17081104e-09
3.25291428e-09
3.32994013e-09
3.40210067e-09
3.46946031e-09
3.53257894e-09
3.59059824e-09
3.64354057e-09
3.69202326e-09
3.736311e-09
3.77662074e-09
3.81268454e-09
3.84491221e-09
3.87362501e-09
3.89921792e-09
3.92175755e-09
3.9412121e-09
3.95819343e-09
3.97295727e-09
3.98560827e-09
3.99625087e-09
4.00497207e-09
4.0119049e-09
4.01713808e-09
4.02075605e-09
4.02284824e-09
4.02352385e-09
4.02290353e-09
4.02109887e-09
4.01820378e-09
4.01428998e-09
4.00940529e-09
4.00357751e-09
3.99682223e-09
3.98915025e-09
3.98056796e-09
3.97107139e-09
3.96076869e-09
3.94968694e-09
3.93786712e-09
3.92538284e-09
3.91231675e-09
3.89875438e-09
3.88478116e-09
3.87047832e-09
3.85592021e-09
3.8411626e-09
3.82623665e-09
3.81114025e-09
3.79583018e-09
3.7802178e-09
3.76417249e-09
3.74753879e-09
3.7301668e-09
3.71188982e-09
3.69295169e-09
3.67329963e-09
3.65314025e-09
3.63274537e-09
3.61239727e-09
3.59235567e-09
3.57283335e-09
3.55398738e-09
3.53592857e-09
3.51875166e-09
3.50259895e-09
3.48779241e-09
3.47512444e-09
3.46651436e-09
3.85338899e-13
1.20810861e-12
2.45626156e-12
4.39801745e-12
7.34340683e-12
1.2469885e-11
2.29512249e-11
4.46462218e-11
8.61774366e-11
1.58888699e-10
2.76099626e-10
4.5337574e-10
7.08045761e-10
1.06072877e-09
1.53469555e-09
2.15702749e-09
2.95753017e-09
3.967492e-09
5.22007792e-09
6.74764708e-09
8.58457517e-09
1.07657515e-08
1.33290209e-08
1.63158331e-08
1.97691882e-08
2.37397758e-08
2.82716737e-08
3.34161651e-08
3.92182517e-08
4.57241404e-08
5.29737591e-08
6.10101682e-08
6.98742646e-08
7.96141228e-08
9.02781913e-08
1.01921672e-07
1.14602272e-07
1.28377868e-07
1.43311953e-07
1.59455959e-07
1.76870782e-07
1.95598912e-07
2.15697884e-07
2.3720796e-07
2.60174635e-07
2.84635699e-07
3.10626332e-07
3.38179505e-07
3.67326356e-07
3.98099343e-07
4.30531651e-07
4.64665824e-07
5.0055109e-07
5.38247207e-07
5.77822189e-07
6.19353032e-07
6.62922012e-07
7.08617849e-07
7.56532421e-07
8.06760397e-07
8.59397245e-07
9.14542572e-07
9.72291775e-07
1.03275611e-06
1.0960302e-06
1.16221397e-06
1.23143246e-06
1.30378991e-06
1.37939114e-06
1.45831328e-06
1.54061217e-06
1.62630061e-06
1.71535389e-06
1.80772761e-06
1.90332424e-06
2.00208024e-06
2.10390466e-06
2.20872966e-06
2.31649461e-06
2.42716831e-06
2.54071167e-06
2.65709905e-06
2.7763078e-06
2.89830404e-06
3.02304385e-06
3.15048293e-06
3.28057434e-06
3.4132804e-06
3.54855691e-06
3.68637938e-06
3.82673441e-06
3.9696184e-06
4.1150371e-06
4.26300882e-06
4.4135686e-06
4.56676805e-06
4.72268205e-06
4.88142249e-06
5.04314061e-06
5.20805459e-06
5.37639921e-06
5.54845222e-06
5.72453572e-06
5.90502914e-06
6.09034317e-06
6.2809988e-06
6.47757282e-06
6.68073835e-06
6.89134903e-06
7.11042051e-06
7.33917956e-06
7.57914055e-06
7.8321527e-06
8.10050105e-06
8.3870117e-06
8.69515489e-06
9.02918597e-06
9.39421428e-06
9.79607526e-06
1.02406909e-05
1.07325695e-05
1.12712773e-05
1.18453252e-05
1.24244985e-05
1.29560722e-05
1.33722751e-05
1.36104884e-05
1.36350276e-05
1.34459218e-05
1.30719148e-05
1.25560664e-05
1.19428888e-05
1.12705106e-05
1.05676326e-05
9.8537027e-06
9.13938325e-06
8.42912889e-06
7.72181178e-06
7.01134333e-06
6.28026168e-06
5.5101864e-06
4.69395528e-06
3.85130523e-06
3.04099083e-06
2.32872065e-06
1.74443601e-06
1.28588382e-06
9.37814395e-07
6.8092009e-07
4.93266529e-07
3.5707577e-07
2.58720253e-07
1.87875649e-07
1.36698157e-07
9.96876472e-08
7.29061814e-08
5.35082817e-08
3.94427819e-08
2.92323392e-08
2.18124122e-08
1.64142675e-08
1.24825497e-08
9.61501272e-09
7.51945999e-09
5.98318039e-09
4.85096544e-09
4.0109602e-09
3.38276795e-09
2.90843308e-09
2.54636978e-09
2.26686464e-09
2.04886314e-09
1.8775883e-09
1.74279419e-09
1.63719706e-09
1.55571658e-09
1.49517973e-09
1.45326936e-09
1.42832255e-09
1.41909677e-09
1.42458766e-09
1.44390413e-09
1.47618675e-09
1.52055285e-09
1.57605852e-09
1.64168668e-09
1.7163644e-09
1.79897895e-09
1.88834634e-09
1.98323744e-09
2.08245688e-09
2.18496494e-09
2.28971847e-09
2.39548221e-09
2.5011474e-09
2.60600263e-09
2.70956609e-09
2.81083759e-09
2.90872105e-09
3.00273335e-09
3.09272012e-09
3.17882139e-09
3.26036246e-09
3.33684421e-09
3.40845453e-09
3.47529912e-09
3.53794983e-09
3.59553311e-09
3.64804906e-09
3.69614717e-09
3.74008322e-09
3.7800663e-09
3.81583571e-09
3.84777308e-09
3.87621713e-09
3.90156266e-09
3.92387986e-09
3.94314275e-09
3.95992813e-09
3.97447706e-09
3.98693628e-09
3.99740252e-09
4.00596022e-09
4.01274153e-09
4.01783673e-09
4.02132892e-09
4.023307e-09
4.02387854e-09
4.023162e-09
4.02126673e-09
4.01828456e-09
4.01428581e-09
4.00931786e-09
4.0034089e-09
3.99657553e-09
3.9888297e-09
3.98017842e-09
3.97061168e-09
3.96025575e-09
3.94912413e-09
3.93725879e-09
3.9247337e-09
3.91163086e-09
3.89803469e-09
3.88402961e-09
3.869696e-09
3.85510741e-09
3.84031903e-09
3.82536161e-09
3.81023294e-09
3.79489009e-09
3.77924519e-09
3.76316901e-09
3.74650812e-09
3.72911521e-09
3.71083933e-09
3.69189468e-09
3.67224528e-09
3.65210254e-09
3.63173191e-09
3.61141222e-09
3.59140038e-09
3.571907e-09
3.55308754e-09
3.5350518e-09
3.51789404e-09
3.50175651e-09
3.48696143e-09
3.47430145e-09
3.46569581e-09
1.54835325e-11
3.83671368e-11
6.87388852e-11
1.07675408e-10
1.58970474e-10
2.65847854e-10
5.18491222e-10
1.02398395e-09
1.87878123e-09
3.15580053e-09
4.89792525e-09
7.13694452e-09
9.90743377e-09
1.32636374e-08
1.72645928e-08
2.19735055e-08
2.74281303e-08
3.36427783e-08
4.06100138e-08
4.831024e-08
5.67403293e-08
6.59128307e-08
7.58744447e-08
8.66755503e-08
9.83839047e-08
1.11043465e-07
1.24679072e-07
1.39296934e-07
1.54889341e-07
1.71462117e-07
1.89036343e-07
2.07658529e-07
2.27394068e-07
2.48320863e-07
2.70509762e-07
2.94015613e-07
3.18867994e-07
3.45080855e-07
3.72658121e-07
4.01595138e-07
4.31900839e-07
4.6357431e-07
4.96630006e-07
5.31052959e-07
5.66818067e-07
6.03874459e-07
6.42162771e-07
6.81628551e-07
7.22233774e-07
7.63960667e-07
8.06813748e-07
8.50816969e-07
8.96001461e-07
9.42403752e-07
9.90056155e-07
1.03899312e-06
1.08925362e-06
1.14089047e-06
1.19397312e-06
1.24858392e-06
1.30482178e-06
1.36279029e-06
1.42259934e-06
1.48435938e-06
1.54817845e-06
1.61416624e-06
1.68244341e-06
1.75311294e-06
1.82627178e-06
1.90199056e-06
1.98032013e-06
2.0612838e-06
2.14489285e-06
2.23115337e-06
2.32006587e-06
2.41165227e-06
2.50595165e-06
2.60300219e-06
2.7028417e-06
2.80550031e-06
2.91101175e-06
3.01937544e-06
3.13057164e-06
3.24458144e-06
3.36136636e-06
3.48090981e-06
3.60318842e-06
3.72819933e-06
3.85595014e-06
3.98645877e-06
4.11975427e-06
4.25586706e-06
4.39482625e-06
4.53666804e-06
4.68143857e-06
4.82919158e-06
4.98000358e-06
5.13399078e-06
5.29131143e-06
5.45218586e-06
5.61685325e-06
5.78560439e-06
5.95878195e-06
6.13678497e-06
6.32005724e-06
6.50913313e-06
6.70462114e-06
6.90724507e-06
7.11788359e-06
7.33760463e-06
7.56768477e-06
7.80967428e-06
8.06546069e-06
8.33734968e-06
8.62814826e-06
8.94120012e-06
9.28049772e-06
9.65061332e-06
1.00563628e-05
1.05018218e-05
1.09885941e-05
1.15119714e-05
1.20553208e-05
1.2584328e-05
1.30467222e-05
1.33817835e-05
1.35386105e-05
1.34928184e-05
1.32508036e-05
1.28420144e-05
1.23064969e-05
1.16843459e-05
1.10094227e-05
1.03070598e-05
9.59461077e-06
8.88106794e-06
8.17072485e-06
7.46277443e-06
6.7446181e-06
6.00253769e-06
5.2240758e-06
4.41107128e-06
3.59264704e-06
2.82816921e-06
2.16735737e-06
1.62778598e-06
1.20437326e-06
8.82277956e-07
6.43062706e-07
4.68050132e-07
3.40220506e-07
2.47452918e-07
1.80375032e-07
1.31674782e-07
9.63103311e-08
7.06267519e-08
5.19640935e-08
3.83937023e-08
2.85189515e-08
2.13281116e-08
1.60874228e-08
1.22642011e-08
9.47159117e-09
7.42779813e-09
5.92723408e-09
4.81966803e-09
3.99633685e-09
3.37927476e-09
2.91230277e-09
2.55508134e-09
2.27877201e-09
2.06291732e-09
1.89314936e-09
1.75951636e-09
1.65480843e-09
1.57415528e-09
1.51442143e-09
1.47329624e-09
1.44911997e-09
1.44063829e-09
1.44682666e-09
1.46677007e-09
1.49958551e-09
1.5443696e-09
1.60016056e-09
1.66592591e-09
1.74058261e-09
1.82301898e-09
1.91206242e-09
2.00648738e-09
2.105091e-09
2.20684957e-09
2.31075871e-09
2.41561786e-09
2.52034105e-09
2.62415886e-09
2.72661277e-09
2.82682699e-09
2.92375017e-09
3.01689233e-09
3.10587498e-09
3.19090903e-09
3.27151166e-09
3.34725022e-09
3.41815606e-09
3.48419112e-09
3.54603432e-09
3.60289747e-09
3.65485355e-09
3.70244718e-09
3.74581382e-09
3.78524316e-09
3.82054755e-09
3.85210211e-09
3.88017064e-09
3.90511923e-09
3.92706968e-09
3.94606768e-09
3.96255403e-09
3.97678493e-09
3.98894747e-09
3.99914021e-09
4.00745162e-09
4.01400792e-09
4.01889384e-09
4.02219341e-09
4.02399725e-09
4.02441035e-09
4.02354729e-09
4.02151417e-09
4.01839995e-09
4.01427256e-09
4.00917856e-09
4.00314688e-09
3.99619565e-09
3.98833844e-09
3.97958311e-09
3.96990907e-09
3.95947459e-09
3.94826737e-09
3.93633303e-09
3.92374618e-09
3.91058772e-09
3.89694041e-09
3.88288712e-09
3.86850697e-09
3.85387233e-09
3.83903746e-09
3.82403256e-09
3.80885525e-09
3.79346305e-09
3.77776925e-09
3.76164669e-09
3.74494502e-09
3.72752219e-09
3.70926168e-09
3.69028865e-09
3.67064648e-09
3.65052914e-09
3.63019505e-09
3.6099181e-09
3.58995104e-09
3.57050116e-09
3.55172159e-09
3.53372064e-09
3.51659176e-09
3.50047711e-09
3.48569929e-09
3.47305148e-09
3.46445291e-09
6.01126409e-10
9.33845427e-10
1.23322815e-09
1.52971582e-09
1.94233071e-09
3.76027267e-09
8.33565494e-09
1.59288332e-08
2.60219089e-08
3.7794555e-08
5.04480226e-08
6.36790708e-08
7.76833253e-08
9.28585837e-08
1.09447732e-07
1.27414148e-07
1.46457446e-07
1.66119957e-07
1.86006077e-07
2.06015643e-07
2.2638027e-07
2.474983e-07
2.69771379e-07
2.9344286e-07
3.18573974e-07
3.44981946e-07
3.72409437e-07
4.00593707e-07
4.29461724e-07
4.59131866e-07
4.89847926e-07
5.21879432e-07
5.55439144e-07
5.90623574e-07
6.27377918e-07
6.65532234e-07
7.04875821e-07
7.45260754e-07
7.86624386e-07
8.28982297e-07
8.72388078e-07
9.16868712e-07
9.62405546e-07
1.00887557e-06
1.05609272e-06
1.10384514e-06
1.15196902e-06
1.2003924e-06
1.24913534e-06
1.29828083e-06
1.34793216e-06
1.39817946e-06
1.44906758e-06
1.500603e-06
1.55275768e-06
1.60551573e-06
1.65889361e-06
1.71296292e-06
1.76784109e-06
1.82366334e-06
1.88057547e-06
1.93869342e-06
1.99813003e-06
2.0589489e-06
2.12125249e-06
2.18511783e-06
2.25061888e-06
2.31782746e-06
2.38680846e-06
2.45759641e-06
2.53022464e-06
2.60472424e-06
2.68115213e-06
2.75959369e-06
2.84016784e-06
2.92301963e-06
3.00832968e-06
3.0962344e-06
3.18684503e-06
3.28024019e-06
3.37646736e-06
3.47553063e-06
3.57740632e-06
3.68207665e-06
3.7895202e-06
3.89976828e-06
4.01284649e-06
4.12881051e-06
4.24773764e-06
4.36970484e-06
4.49478593e-06
4.62304077e-06
4.75451577e-06
4.88925691e-06
5.02731332e-06
5.16873857e-06
5.31361187e-06
5.46206766e-06
5.61426282e-06
5.77042818e-06
5.93083063e-06
6.09578379e-06
6.26565905e-06
6.44088473e-06
6.62194719e-06
6.80938941e-06
7.00386662e-06
7.20615489e-06
7.41717596e-06
7.63804733e-06
7.87008344e-06
8.11486076e-06
8.37427442e-06
8.65060116e-06
8.9465283e-06
9.2650777e-06
9.60970686e-06
9.98400143e-06
1.03910683e-05
1.08321028e-05
1.13046458e-05
1.17985463e-05
1.22916181e-05
1.27465863e-05
1.31147032e-05
1.33458027e-05
1.34029909e-05
1.32738814e-05
1.29705984e-05
1.25221678e-05
1.19644875e-05
1.13323609e-05
1.06546367e-05
9.95277066e-06
9.24202842e-06
8.52928539e-06
7.81943694e-06
7.10527383e-06
6.37736682e-06
5.62502955e-06
4.84319393e-06
4.04572331e-06
3.27018227e-06
2.56897899e-06
1.9723028e-06
1.48671973e-06
1.10563405e-06
8.14744488e-07
5.97190384e-07
4.36793183e-07
3.19141676e-07
2.33279513e-07
1.70959873e-07
1.25356703e-07
9.20499321e-08
6.77408518e-08
5.00025381e-08
3.70574262e-08
2.76084095e-08
2.07091103e-08
1.56693607e-08
1.19850562e-08
9.28856743e-09
7.3112541e-09
5.85655228e-09
4.78061341e-09
3.97874946e-09
3.376001e-09
2.91849371e-09
2.5674954e-09
2.29529725e-09
2.08221087e-09
1.91439346e-09
1.78228078e-09
1.67870685e-09
1.59916636e-09
1.54048718e-09
1.50039202e-09
1.47722287e-09
1.46970883e-09
1.47679858e-09
1.49754595e-09
1.53103672e-09
1.57634016e-09
1.63247329e-09
1.69838654e-09
1.7729817e-09
1.85514257e-09
1.94371691e-09
2.03749695e-09
2.13528053e-09
2.23601179e-09
2.33874796e-09
2.44236796e-09
2.54588032e-09
2.64834957e-09
2.74927576e-09
2.84800489e-09
2.9436622e-09
3.03576574e-09
3.12342955e-09
3.2069579e-09
3.28622324e-09
3.36102471e-09
3.43111843e-09
3.49606416e-09
3.55675034e-09
3.61259218e-09
3.66386948e-09
3.7108607e-09
3.75344371e-09
3.7920894e-09
3.82675187e-09
3.85784558e-09
3.8854439e-09
3.90984794e-09
3.9312868e-09
3.94988191e-09
3.96601242e-09
3.9798541e-09
3.99161892e-09
4.0014437e-09
4.0094289e-09
4.01569e-09
4.020297e-09
4.02333805e-09
4.02490814e-09
4.02510883e-09
4.02404913e-09
4.02183117e-09
4.01854028e-09
4.01424115e-09
4.00897914e-09
4.00278431e-09
3.99567677e-09
3.98767201e-09
3.97877907e-09
3.96895949e-09
3.95842543e-09
3.94711696e-09
3.93509059e-09
3.92242159e-09
3.9091892e-09
3.8954739e-09
3.88135648e-09
3.86691445e-09
3.85221858e-09
3.83732199e-09
3.82225411e-09
3.80701239e-09
3.79155491e-09
3.77579653e-09
3.75961284e-09
3.74285748e-09
3.72539462e-09
3.7071289e-09
3.68814102e-09
3.66851185e-09
3.64842866e-09
3.62814294e-09
3.60792247e-09
3.58801457e-09
3.56862217e-09
3.54989535e-09
3.53194045e-09
3.5148498e-09
3.49876541e-09
3.48401045e-09
3.47137887e-09
3.46278983e-09
1.42420621e-08
1.11989736e-08
9.7308502e-09
9.32013691e-09
1.13610407e-08
3.80063697e-08
8.66555526e-08
1.38016545e-07
1.81524904e-07
2.14190771e-07
2.37304991e-07
2.57387304e-07
2.80706407e-07
3.09301051e-07
3.41691976e-07
3.74923468e-07
4.06194017e-07
4.33752506e-07
4.57790832e-07
4.80756041e-07
5.05451271e-07
5.33574349e-07
5.65447275e-07
6.00280497e-07
6.36750301e-07
6.73374736e-07
7.09163259e-07
7.44082832e-07
7.79049704e-07
8.15266611e-07
8.53665198e-07
8.94653622e-07
9.38119823e-07
9.83530955e-07
1.0301092e-06
1.07711504e-06
1.12415058e-06
1.17128102e-06
1.21883872e-06
1.26718371e-06
1.31652462e-06
1.36682656e-06
1.41784659e-06
1.46914957e-06
1.52027751e-06
1.57091044e-06
1.62098605e-06
1.67068283e-06
1.72030555e-06
1.77014926e-06
1.82040814e-06
1.87114707e-06
1.92230314e-06
1.97375259e-06
2.0253631e-06
2.07710524e-06
2.12906282e-06
2.18143122e-06
2.23445012e-06
2.28833189e-06
2.3432426e-06
2.39925958e-06
2.45643633e-06
2.51476632e-06
2.5742973e-06
2.63506511e-06
2.6971085e-06
2.7604512e-06
2.82511871e-06
2.89110332e-06
2.95843376e-06
3.02716259e-06
3.09741395e-06
3.16937101e-06
3.24326457e-06
3.31934493e-06
3.39787464e-06
3.4790198e-06
3.56289571e-06
3.64957038e-06
3.73905844e-06
3.83133693e-06
3.92637135e-06
4.0241518e-06
4.1246922e-06
4.22807456e-06
4.33438272e-06
4.44373469e-06
4.55626059e-06
4.67207508e-06
4.7912735e-06
4.91392203e-06
5.04006795e-06
5.16974981e-06
5.30301225e-06
5.43991213e-06
5.58052954e-06
5.72501538e-06
5.87353927e-06
6.02634242e-06
6.18371908e-06
6.34600768e-06
6.51360415e-06
6.68696126e-06
6.86658785e-06
7.05304173e-06
7.2469989e-06
7.44926722e-06
7.66080056e-06
7.88273846e-06
8.11638994e-06
8.36331973e-06
8.62537116e-06
8.90471804e-06
9.20383419e-06
9.52528431e-06
9.87188583e-06
1.02461219e-05
1.06493677e-05
1.10801239e-05
1.1532717e-05
1.19932118e-05
1.24366329e-05
1.28257813e-05
1.31170131e-05
1.3268852e-05
1.32536791e-05
1.30662129e-05
1.27210707e-05
1.224602e-05
1.16736516e-05
1.10350465e-05
1.03555447e-05
9.65398085e-06
8.94472219e-06
8.23282916e-06
7.51986872e-06
6.8004994e-06
6.06726324e-06
5.3122066e-06
4.53667256e-06
3.76336956e-06
3.03088117e-06
2.38044064e-06
1.83090908e-06
1.3845875e-06
1.03390334e-06
7.65325436e-07
5.63469164e-07
4.13815587e-07
3.03546474e-07
2.22710749e-07
1.63830856e-07
1.20540958e-07
8.87865581e-08
6.55207475e-08
4.84873053e-08
3.60218518e-08
2.690106e-08
2.02274958e-08
1.53438661e-08
1.1767912e-08
9.14657171e-09
7.22131025e-09
5.80252684e-09
4.75131029e-09
3.96627317e-09
3.37474049e-09
2.92464564e-09
2.57852202e-09
2.30954785e-09
2.09863941e-09
1.93236364e-09
1.80147708e-09
1.69880944e-09
1.62015739e-09
1.56232684e-09
1.52305866e-09
1.50069403e-09
1.49394771e-09
1.5017466e-09
1.52311966e-09
1.55712767e-09
1.6028177e-09
1.65919028e-09
1.72518516e-09
1.7996957e-09
1.88160027e-09
1.96975374e-09
2.06296702e-09
2.16005082e-09
2.2599439e-09
2.36172125e-09
2.46430787e-09
2.56675048e-09
2.66812083e-09
2.7678685e-09
2.86544037e-09
2.95998981e-09
3.05108833e-09
3.13771848e-09
3.22013447e-09
3.29839298e-09
3.37230515e-09
3.44158774e-09
3.50570577e-09
3.56556103e-09
3.62062321e-09
3.67122849e-09
3.71763306e-09
3.75962901e-09
3.79770869e-09
3.83186324e-09
3.86250929e-09
3.88969091e-09
3.91368377e-09
3.93473698e-09
3.95299125e-09
3.96880595e-09
3.98233269e-09
3.99378824e-09
4.00332188e-09
4.01104035e-09
4.01705566e-09
4.02143503e-09
4.02426603e-09
4.02564442e-09
4.02567e-09
4.02444822e-09
4.02207768e-09
4.0186407e-09
4.01419995e-09
4.00880016e-09
4.002472e-09
3.99523695e-09
3.98711202e-09
3.97810767e-09
3.96816533e-09
3.95755643e-09
3.9461636e-09
3.93406173e-09
3.92132562e-09
3.90803282e-09
3.8942619e-09
3.880092e-09
3.86559936e-09
3.85085343e-09
3.83590642e-09
3.82078715e-09
3.80549295e-09
3.78998239e-09
3.77417162e-09
3.7579384e-09
3.74113964e-09
3.72364415e-09
3.70536657e-09
3.68637304e-09
3.66675627e-09
3.64670123e-09
3.62645487e-09
3.60628023e-09
3.58642034e-09
3.56707461e-09
3.54839059e-09
3.53047303e-09
3.51341341e-09
3.4973536e-09
3.48261719e-09
3.46999878e-09
3.46141752e-09
1.63716421e-12
2.49408603e-12
2.96904891e-12
3.25363476e-12
3.42315697e-12
3.51281788e-12
3.54449587e-12
3.53534539e-12
3.4974168e-12
3.44158459e-12
3.37577766e-12
3.30488129e-12
3.23201122e-12
3.15963006e-12
3.0894566e-12
3.02244203e-12
2.95896111e-12
2.8992427e-12
2.8434757e-12
2.79166975e-12
2.74362606e-12
2.69916409e-12
2.6581591e-12
2.62043793e-12
2.58573579e-12
2.553827e-12
2.52454178e-12
2.49769723e-12
2.47313656e-12
2.45068491e-12
2.43017548e-12
2.41146409e-12
2.39448899e-12
2.37918472e-12
2.36566314e-12
2.35935215e-12
2.59325395e-12
1.28401721e-11
4.10670238e-10
1.23772678e-08
1.13928554e-12
1.95617202e-12
2.50183719e-12
2.8770469e-12
3.13804525e-12
3.31763425e-12
3.43424582e-12
3.50130702e-12
3.5293294e-12
3.52813525e-12
3.50564911e-12
3.46756152e-12
3.41832481e-12
3.36177823e-12
3.300922e-12
3.2379247e-12
3.17439591e-12
3.11155964e-12
3.05030184e-12
2.99123889e-12
2.93478136e-12
2.88115464e-12
2.83049039e-12
2.78286297e-12
2.73826461e-12
2.69659861e-12
2.65778402e-12
2.62172205e-12
2.58829666e-12
2.55738966e-12
2.52887455e-12
2.50259771e-12
2.47849123e-12
2.45650068e-12
2.4366364e-12
2.42004547e-12
2.45096511e-12
4.22996985e-12
6.49254674e-11
1.54793131e-09
8.04510274e-13
1.50773398e-12
2.0488972e-12
2.45865835e-12
2.76842366e-12
3.00282373e-12
3.17846639e-12
3.30585832e-12
3.39290385e-12
3.4468809e-12
3.474152e-12
3.47982767e-12
3.46818495e-12
3.4430915e-12
3.40779018e-12
3.36484518e-12
3.31637649e-12
3.26424932e-12
3.20991717e-12
3.15448447e-12
3.09891151e-12
3.04400296e-12
2.99029076e-12
2.93816471e-12
2.88797705e-12
2.83998329e-12
2.79433812e-12
2.75110699e-12
2.71029123e-12
2.67189024e-12
2.6359238e-12
2.60235385e-12
2.57111985e-12
2.54216667e-12
2.51547786e-12
2.49117777e-12
2.47510701e-12
2.670893e-12
9.13731153e-12
1.50990544e-10
7.1594498e-13
1.34039519e-12
1.85332745e-12
2.2619594e-12
2.58282829e-12
2.83259065e-12
3.02533507e-12
3.17172756e-12
3.27986435e-12
3.35610708e-12
3.40574388e-12
3.43318998e-12
3.44212956e-12
3.43582102e-12
3.4171555e-12
3.38860186e-12
3.35226504e-12
3.31001873e-12
3.26345739e-12
3.21389998e-12
3.1624826e-12
3.1101839e-12
3.05777329e-12
3.00587299e-12
2.95498573e-12
2.90553962e-12
2.85785256e-12
2.81213893e-12