/*--------------------------------*- C++ -*----------------------------------*\
  =========                 |
  \\      /  F ield         | OpenFOAM: The Open Source CFD Toolbox
   \\    /   O peration     | Website:  https://openfoam.org
    \\  /    A nd           | Version:  6
     \\/     M anipulation  |
\*---------------------------------------------------------------------------*/
FoamFile
{
    version     2.0;
    format      ascii;
    class       volScalarField;
    location    "25000";
    object      HNO;
}
// * * * * * * * * * * * * * * * * * * * * * * * * * * * * * * * * * * * * * //

dimensions      [0 0 0 0 0 0 0];

internalField   nonuniform List<scalar> 
44870
(
3.24879908e-105
4.01304608e-103
4.93274118e-101
6.13170049e-99
7.71457984e-97
9.82984982e-95
1.26933262e-92
1.66222513e-90
2.20909339e-88
2.98156136e-86
4.08949904e-84
5.7034321e-82
8.09174234e-80
1.16827041e-77
1.71679917e-75
2.56816121e-73
3.91032936e-71
6.0597242e-69
9.55438763e-67
1.53237051e-64
2.498769e-62
4.14142019e-60
6.97254134e-58
1.1920392e-55
2.06814142e-53
3.63992528e-51
6.49379202e-49
1.17387553e-46
2.14786647e-44
3.97589881e-42
7.43332206e-40
1.40233898e-37
2.66165275e-35
5.07169476e-33
9.64195708e-31
1.81776064e-28
3.34758967e-26
5.90381587e-24
9.39106138e-22
1.26514924e-19
2.34579613e-105
2.87998843e-103
3.52254402e-101
4.36876986e-99
5.50614339e-97
7.06564798e-95
9.2503038e-93
1.23774141e-90
1.69537013e-88
2.3798738e-86
3.42651678e-84
5.06143877e-82
7.6694153e-80
1.19150429e-77
1.89598835e-75
3.08737659e-73
5.13672585e-71
8.72288469e-69
1.5092886e-66
2.6584778e-64
4.75902094e-62
8.65364012e-60
1.5957252e-57
2.9840499e-55
5.64911087e-53
1.08338498e-50
2.10048785e-48
4.12317875e-46
8.17340018e-44
1.64018549e-41
3.32039602e-39
6.80496464e-37
1.40501211e-34
2.93691027e-32
6.16803392e-30
1.30833886e-27
2.76339333e-25
5.82629739e-23
1.14869201e-20
2.15573355e-18
1.00737059e-105
1.20494761e-103
1.45084476e-101
1.80510631e-99
2.33975066e-97
3.17719894e-95
4.53706864e-93
6.82007908e-91
1.07703715e-88
1.78064613e-86
3.06579626e-84
5.4654448e-82
1.00306912e-79
1.88556667e-77
3.61283823e-75
7.03782185e-73
1.38808902e-70
2.76909547e-68
5.5709348e-66
1.13019063e-63
2.30753887e-61
4.74507208e-59
9.80634384e-57
2.04076962e-54
4.26443921e-52
8.978248e-50
1.8967947e-47
4.0412353e-45
8.63387872e-43
1.86312837e-40
4.02803321e-38
8.81286398e-36
1.9291138e-33
4.28528363e-31
9.51626721e-29
2.15080469e-26
4.85351463e-24
1.12368741e-21
2.4970814e-19
5.70259302e-17
2.09424508e-106
2.50342435e-104
3.39276464e-102
5.32792059e-100
9.54474771e-98
1.89361096e-95
4.0303514e-93
8.96492274e-91
2.04487011e-88
4.72365636e-86
1.09624344e-83
2.54348609e-81
5.88128062e-79
1.3535667e-76
3.09710164e-74
7.04669671e-72
1.59392655e-69
3.58738402e-67
8.03283306e-65
1.79116507e-62
3.97970309e-60
8.81773625e-58
1.94876125e-55
4.30118851e-53
9.47836353e-51
2.08893688e-48
4.60085457e-46
1.01467122e-43
2.23761886e-41
4.94900765e-39
1.09482746e-36
2.43278481e-34
5.40682735e-32
1.20887672e-29
2.70315823e-27
6.077749e-25
1.36291736e-22
3.06072245e-20
6.65161378e-18
1.40610961e-15
2.7019065e-107
8.31693269e-105
2.7982491e-102
9.36717505e-100
3.02506146e-97
9.36913241e-95
2.78625265e-92
7.98054328e-90
2.20922145e-87
5.93093676e-85
1.54910441e-82
3.94822941e-80
9.84619461e-78
2.40849285e-75
5.79165431e-73
1.37184728e-70
3.2065274e-68
7.40771871e-66
1.69384374e-63
3.83844767e-61
8.63006511e-59
1.92702473e-56
4.27714615e-54
9.44404518e-52
2.07584314e-49
4.54520314e-47
9.918928e-45
2.1580588e-42
4.6839977e-40
1.01439715e-37
2.19302205e-35
4.73365808e-33
1.0205355e-30
2.19772853e-28
4.72908484e-26
1.01682238e-23
2.18520242e-21
4.69350087e-19
1.00765988e-16
2.17403528e-14
4.04241233e-18
1.73556244e-17
4.64714232e-17
1.03347344e-16
2.09280382e-16
4.0852168e-16
7.88038735e-16
1.50043965e-15
2.7781468e-15
4.95967701e-15
8.48382119e-15
1.39402286e-14
2.20328132e-14
3.3679931e-14
4.9960995e-14
7.21777392e-14
1.01918682e-13
1.40931208e-13
1.91496268e-13
2.5593352e-13
3.37271093e-13
4.387434e-13
5.64225527e-13
7.1823239e-13
9.05913596e-13
1.1334566e-12
1.4069257e-12
1.73565737e-12
2.12664264e-12
2.59275135e-12
3.14440087e-12
3.79582823e-12
4.56317497e-12
5.46164694e-12
6.51367741e-12
7.73720002e-12
9.1604605e-12
1.08060457e-11
1.27074612e-11
1.4895224e-11
1.7409857e-11
2.02935734e-11
2.35946514e-11
2.7362513e-11
3.16561517e-11
3.65263672e-11
4.2029044e-11
4.82220286e-11
5.51662661e-11
6.292753e-11
7.1574906e-11
8.11821292e-11
9.1822209e-11
1.03568212e-10
1.16484767e-10
1.30628503e-10
1.46039699e-10
1.62743795e-10
1.80747656e-10
2.00041799e-10
2.20600619e-10
2.4238094e-10
2.65325932e-10
2.89358758e-10
3.14395456e-10
3.40330301e-10
3.67055314e-10
3.94436286e-10
4.22329924e-10
4.5055254e-10
4.78895339e-10
5.0710991e-10
5.34909096e-10
5.61998714e-10
5.88019494e-10
6.12648315e-10
6.35451824e-10
6.56043702e-10
6.73997749e-10
6.88927826e-10
7.00524854e-10
7.08621006e-10
7.13252409e-10
7.14678938e-10
7.13394828e-10
7.10085779e-10
7.05605965e-10
7.00865229e-10
6.96794615e-10
6.94287354e-10
6.94146337e-10
6.97090351e-10
7.03723572e-10
7.14569161e-10
7.30093334e-10
7.50732441e-10
7.76913454e-10
8.0908292e-10
8.47725602e-10
8.93404009e-10
9.46747647e-10
1.00846154e-09
1.07932797e-09
1.16027053e-09
1.25233138e-09
1.35680793e-09
1.47528922e-09
1.60965343e-09
1.76234988e-09
1.93635893e-09
2.13547355e-09
2.36441226e-09
2.62906709e-09
2.937026e-09
3.29829448e-09
3.72517612e-09
4.23311422e-09
4.84187347e-09
5.57657517e-09
6.46861698e-09
7.55591025e-09
8.881171e-09
1.04862509e-08
1.24003552e-08
1.46229811e-08
1.71081806e-08
1.97610488e-08
2.24516695e-08
2.50451708e-08
2.74319563e-08
2.95436878e-08
3.13537617e-08
3.28768774e-08
3.41558707e-08
3.52426747e-08
3.61978431e-08
3.70638267e-08
3.78642709e-08
3.85808681e-08
3.90444867e-08
3.94331957e-08
3.93452125e-08
3.81090908e-08
3.53344089e-08
3.1636729e-08
2.78124054e-08
2.42855368e-08
2.12569284e-08
1.88208193e-08
1.68477755e-08
1.52606824e-08
1.39790771e-08
1.29333984e-08
1.20578821e-08
1.13033696e-08
1.0635857e-08
1.00314789e-08
9.47384127e-09
8.95189378e-09
8.458335e-09
7.98850469e-09
7.53958046e-09
7.10995965e-09
6.69882147e-09
6.30580915e-09
5.93080679e-09
5.57379758e-09
5.23475259e-09
4.91356537e-09
4.61002077e-09
4.32378311e-09
4.05439619e-09
3.80128786e-09
3.56381073e-09
3.34142269e-09
3.1335277e-09
2.93925958e-09
2.75784939e-09
2.58855941e-09
2.43066478e-09
2.28345919e-09
2.14625814e-09
2.01840224e-09
1.89926316e-09
1.78824563e-09
1.68478004e-09
1.58831997e-09
1.49835458e-09
1.41441844e-09
1.33607262e-09
1.26283198e-09
1.19446444e-09
1.13048026e-09
1.0706709e-09
1.01472016e-09
9.62259617e-10
9.13009418e-10
8.66821069e-10
8.23589108e-10
7.83007794e-10
7.44839277e-10
7.08912351e-10
6.75148975e-10
6.43341373e-10
6.13257282e-10
5.84790006e-10
5.57816004e-10
5.32423419e-10
5.08387838e-10
4.85493029e-10
4.63669149e-10
4.42917535e-10
4.23237449e-10
4.0447566e-10
3.86530559e-10
3.69305292e-10
3.52823433e-10
3.37016588e-10
3.21751937e-10
3.07186492e-10
2.9312383e-10
2.79636011e-10
2.66754589e-10
2.54442485e-10
2.42700888e-10
2.31532004e-10
2.20928202e-10
2.10858511e-10
2.01278793e-10
1.92158892e-10
1.83480308e-10
1.75226151e-10
1.67379024e-10
1.59920328e-10
1.52829789e-10
1.46087203e-10
1.39671328e-10
1.33546158e-10
1.27689993e-10
1.22081992e-10
1.16709558e-10
1.11561762e-10
1.06627792e-10
1.01897465e-10
9.7361131e-11
9.30092644e-11
8.88321469e-11
8.48198551e-11
8.09624229e-11
7.72502684e-11
7.36749195e-11
7.02300547e-11
6.69127331e-11
6.37244438e-11
6.0670224e-11
5.77435668e-11
5.50001111e-11
5.24138036e-11
4.99926456e-11
4.7737165e-11
4.56416309e-11
4.36957494e-11
4.18863498e-11
4.01992447e-11
3.86214807e-11
3.71443103e-11
3.57682469e-11
3.45134348e-11
3.34430364e-11
3.27165115e-11
8.33872323e-17
3.10305203e-16
7.29190071e-16
1.48305131e-15
2.83889966e-15
5.44905433e-15
1.05536438e-14
2.0107149e-14
3.66998974e-14
6.36603543e-14
1.04772221e-13
1.64729498e-13
2.48622619e-13
3.62801042e-13
5.14123135e-13
7.10284102e-13
9.60015024e-13
1.27196868e-12
1.65679692e-12
2.12385388e-12
2.68489159e-12
3.35130616e-12
4.13503487e-12
5.05039578e-12
6.1080979e-12
7.32486908e-12
8.71093284e-12
1.02839835e-11
1.2054789e-11
1.40417307e-11
1.62568677e-11
1.87164397e-11
2.14328649e-11
2.44198182e-11
2.76907109e-11
3.1257595e-11
3.51371359e-11
3.93429124e-11
4.3898359e-11
4.88220969e-11
5.41440595e-11
5.98869672e-11
6.60810402e-11
7.2747244e-11
7.99197988e-11
8.76193562e-11
9.58762015e-11
1.04725489e-10
1.14207479e-10
1.24366659e-10
1.35248706e-10
1.46898823e-10
1.59358083e-10
1.72663798e-10
1.86848416e-10
2.01942454e-10
2.17973554e-10
2.34968023e-10
2.52946744e-10
2.71922627e-10
2.91894411e-10
3.12844319e-10
3.34735162e-10
3.57512078e-10
3.81105663e-10
4.05425869e-10
4.30376787e-10
4.55839039e-10
4.81679901e-10
5.07734075e-10
5.33814225e-10
5.59699714e-10
5.85136945e-10
6.09854912e-10
6.3352031e-10
6.55808437e-10
6.76297037e-10
6.94609436e-10
7.10350287e-10
7.23192904e-10
7.32908618e-10
7.39430375e-10
7.4289255e-10
7.43632473e-10
7.42188218e-10
7.39253568e-10
7.35649354e-10
7.32225632e-10
7.29831964e-10
7.29281805e-10
7.31296369e-10
7.36522421e-10
7.45521741e-10
7.58793257e-10
7.76796685e-10
7.9997524e-10
8.28772914e-10
8.63661115e-10
9.05156663e-10
9.53863525e-10
1.01044509e-09
1.07564245e-09
1.15027971e-09
1.23532741e-09
1.33187673e-09
1.44129637e-09
1.56524363e-09
1.70568677e-09
1.86518876e-09
2.0468642e-09
2.25464295e-09
2.49342824e-09
2.76937458e-09
3.09037041e-09
3.46673557e-09
3.91101984e-09
4.43909672e-09
5.07113882e-09
5.83259011e-09
6.75492901e-09
7.87566766e-09
9.23629187e-09
1.0876214e-08
1.28207764e-08
1.5064977e-08
1.75591258e-08
2.02071944e-08
2.28804974e-08
2.54478368e-08
2.78041333e-08
2.98851053e-08
3.16663072e-08
3.31648427e-08
3.44243965e-08
3.54943573e-08
3.64341823e-08
3.72794541e-08
3.80470577e-08
3.87101339e-08
3.91554694e-08
3.94790552e-08
3.92611947e-08
3.78551283e-08
3.49805234e-08
3.12841542e-08
2.75077147e-08
2.4039828e-08
2.10675725e-08
1.86755464e-08
1.67383856e-08
1.51768061e-08
1.39133972e-08
1.28813691e-08
1.20151329e-08
1.1267004e-08
1.06040182e-08
1.00030068e-08
9.44803997e-09
8.92834515e-09
8.43678389e-09
7.96878801e-09
7.52158261e-09
7.09358785e-09
6.68399073e-09
6.29243478e-09
5.91880019e-09
5.56306555e-09
5.22519905e-09
4.90509297e-09
4.60253275e-09
4.3171851e-09
4.04859775e-09
3.79620297e-09
3.55935532e-09
3.33752787e-09
3.1301377e-09
2.93630464e-09
2.75527442e-09
2.5863166e-09
2.42871188e-09
2.281759e-09
2.14477761e-09
2.01711152e-09
1.89813589e-09
1.78726001e-09
1.68391778e-09
1.58756281e-09
1.49768412e-09
1.41382174e-09
1.3355455e-09
1.26235396e-09
1.19404198e-09
1.1300876e-09
1.07031046e-09
1.01440162e-09
9.61974485e-10
9.12735463e-10
8.66544573e-10
8.23333499e-10
7.82786997e-10
7.44640722e-10
7.08708154e-10
6.7493074e-10
6.43142018e-10
6.1308977e-10
5.84633656e-10
5.57641274e-10
5.32240081e-10
5.08225044e-10
4.85351478e-10
4.63529207e-10
4.42764083e-10
4.23084404e-10
4.04341687e-10
3.86413511e-10
3.69190993e-10
3.52704753e-10
3.36905801e-10
3.21645579e-10
3.07099795e-10
2.93041606e-10
2.79557164e-10
2.66683875e-10
2.54381759e-10
2.4264691e-10
2.31481355e-10
2.20879786e-10
2.10812202e-10
2.01233506e-10
1.92112958e-10
1.83432822e-10
1.75176966e-10
1.67328145e-10
1.59867735e-10
1.52775635e-10
1.4603186e-10
1.39615406e-10
1.33488554e-10
1.27633666e-10
1.22026886e-10
1.16655839e-10
1.11509485e-10
1.06576976e-10
1.01848118e-10
9.73132511e-11
9.29628348e-11
8.87871384e-11
8.47762344e-11
8.09201664e-11
7.72093762e-11
7.36354269e-11
7.01920397e-11
6.68763174e-11
6.36897846e-11
6.06374719e-11
5.77108852e-11
5.49720756e-11
5.23877964e-11
4.99687635e-11
4.77153412e-11
4.56217015e-11
4.3677513e-11
4.18695958e-11
4.01837682e-11
3.86070929e-11
3.71308485e-11
3.5755571e-11
3.45014196e-11
3.34315489e-11
3.27052828e-11
3.13608861e-15
1.03140119e-14
2.19525917e-14
4.17121835e-14
7.60828333e-14
1.461118e-13
2.84670035e-13
5.28939955e-13
9.1338601e-13
1.46842103e-12
2.2178427e-12
3.18556767e-12
4.39298302e-12
5.86279774e-12
7.61169497e-12
9.65231151e-12
1.19899061e-11
1.46221485e-11
1.75453811e-11
2.07526329e-11
2.42402554e-11
2.80028045e-11
3.20337769e-11
3.63242159e-11
4.0859814e-11
4.56301638e-11
5.06163578e-11
5.58134889e-11
6.12103444e-11
6.68126497e-11
7.26226876e-11
7.86459452e-11
8.48854681e-11
9.13469964e-11
9.80349886e-11
1.04962738e-10
1.12151781e-10
1.19635554e-10
1.27457095e-10
1.35655778e-10
1.44270779e-10
1.53323958e-10
1.62834941e-10
1.72803985e-10
1.83252307e-10
1.94185049e-10
2.05627968e-10
2.17614503e-10
2.30177359e-10
2.43338883e-10
2.57102319e-10
2.71453896e-10
2.86366473e-10
3.01811827e-10
3.1777224e-10
3.34250106e-10
3.5126819e-10
3.68862849e-10
3.87069608e-10
4.05909612e-10
4.25380818e-10
4.45459233e-10
4.66101571e-10
4.87260055e-10
5.08872687e-10
5.30870062e-10
5.53179734e-10
5.75704204e-10
5.98329985e-10
6.20918714e-10
6.43314718e-10
6.65337553e-10
6.86779985e-10
7.07406273e-10
7.26920771e-10
7.45011718e-10
7.61306669e-10
7.75492936e-10
7.87286208e-10
7.96513396e-10
8.03132735e-10
8.07270798e-10
8.09230365e-10
8.09469884e-10
8.08578944e-10
8.07237861e-10
8.06177628e-10
8.06124937e-10
8.07765692e-10
8.11741794e-10
8.18630455e-10
8.28959415e-10
8.43214882e-10
8.61861072e-10
8.85358548e-10
9.1417619e-10
9.48802793e-10
9.8976961e-10
1.03766938e-09
1.09319759e-09
1.15709245e-09
1.23017593e-09
1.3133663e-09
1.40773828e-09
1.51449624e-09
1.63516309e-09
1.77155315e-09
1.92585015e-09
2.10085803e-09
2.29999752e-09
2.52751267e-09
2.78876414e-09
3.09045269e-09
3.44116543e-09
3.8517041e-09
4.33535095e-09
4.90883579e-09
5.59311785e-09
6.41418246e-09
7.40342989e-09
8.59716372e-09
1.00337996e-08
1.17471069e-08
1.37538721e-08
1.60397712e-08
1.85478599e-08
2.11808287e-08
2.38130428e-08
2.63212683e-08
2.86102248e-08
3.0623948e-08
3.2341852e-08
3.37865329e-08
3.50032005e-08
3.60342728e-08
3.69374614e-08
3.77309614e-08
3.84164818e-08
3.89440751e-08
3.93637306e-08
3.95297828e-08
3.90050411e-08
3.72503448e-08
3.41957736e-08
3.05233762e-08
2.68547569e-08
2.35151444e-08
2.06635844e-08
1.83626327e-08
1.65025716e-08
1.49953689e-08
1.37709382e-08
1.27685478e-08
1.19222907e-08
1.11878969e-08
1.05346439e-08
9.94089629e-09
9.3917208e-09
8.87692656e-09
8.38971987e-09
7.92572824e-09
7.48227654e-09
7.05783283e-09
6.6516004e-09
6.26322309e-09
5.89257325e-09
5.53961949e-09
5.20432386e-09
4.88657615e-09
4.5861633e-09
4.30275735e-09
4.03591468e-09
3.78507739e-09
3.54960342e-09
3.32899846e-09
3.12271512e-09
2.92983051e-09
2.74963065e-09
2.58139932e-09
2.42442886e-09
2.27802852e-09
2.14152742e-09
2.01427762e-09
1.89566156e-09
1.78509567e-09
1.68202067e-09
1.58589541e-09
1.49621268e-09
1.41251676e-09
1.33438617e-09
1.2613396e-09
1.19310613e-09
1.12923929e-09
1.06953257e-09
1.01368978e-09
9.61320109e-10
9.12132188e-10
8.65971702e-10
8.22788544e-10
7.82275096e-10
7.44167398e-10
7.08267942e-10
6.74494615e-10
6.42715348e-10
6.12687538e-10
5.84256786e-10
5.57275489e-10
5.31876763e-10
5.07870676e-10
4.85009165e-10
4.63203242e-10
4.42446122e-10
4.22772274e-10
4.04043734e-10
3.8613373e-10
3.68929716e-10
3.52455315e-10
3.36667762e-10
3.21445954e-10
3.06894123e-10
2.92855885e-10
2.79387705e-10
2.66529024e-10
2.54242351e-10
2.42521418e-10
2.31366619e-10
2.2077186e-10
2.10707862e-10
2.01130549e-10
1.92009284e-10
1.83326746e-10
1.75067558e-10
1.67215076e-10
1.59751066e-10
1.52655818e-10
1.45909655e-10
1.39491867e-10
1.33361486e-10
1.27509537e-10
1.21905538e-10
1.16537569e-10
1.11394402e-10
1.06465128e-10
1.01739527e-10
9.72079124e-11
9.28607092e-11
8.868816e-11
8.468033e-11
8.0827283e-11
7.71195112e-11
7.35486535e-11
7.0108524e-11
6.67963208e-11
6.36136469e-11
6.0565538e-11
5.7648479e-11
5.49107624e-11
5.2330623e-11
4.99162606e-11
4.76673613e-11
4.55778874e-11
4.36374225e-11
4.18327647e-11
4.01497495e-11
3.85754781e-11
3.71012781e-11
3.5727734e-11
3.44750386e-11
3.34063333e-11
3.2680737e-11
1.25985753e-13
3.34342688e-13
6.39351989e-13
1.09055514e-12
1.83916282e-12
3.59442074e-12
6.82811846e-12
1.15718048e-11
1.75639039e-11
2.4459041e-11
3.19576399e-11
3.99531815e-11
4.84057006e-11
5.72572961e-11
6.63656942e-11
7.55578241e-11
8.46400134e-11
9.3475106e-11
1.02026288e-10
1.10337458e-10
1.18481883e-10
1.26495103e-10
1.34378136e-10
1.4209012e-10
1.49604953e-10
1.56911078e-10
1.64058243e-10
1.71156797e-10
1.78332012e-10
1.85719987e-10
1.93396554e-10
2.01382551e-10
2.09661946e-10
2.18211553e-10
2.27030709e-10
2.36169955e-10
2.45730829e-10
2.55836275e-10
2.66576606e-10
2.77973418e-10
2.89982584e-10
3.02509079e-10
3.15455692e-10
3.2873928e-10
3.42370294e-10
3.56388232e-10
3.70886768e-10
3.85941433e-10
4.01561735e-10
4.17673087e-10
4.34137311e-10
4.50797471e-10
4.67525577e-10
4.84264804e-10
5.0104364e-10
5.17964519e-10
5.35159693e-10
5.52738898e-10
5.70749018e-10
5.89162389e-10
6.07899288e-10
6.26862554e-10
6.45971988e-10
6.65171788e-10
6.84417505e-10
7.03656866e-10
7.22823678e-10
7.41822754e-10
7.60548993e-10
7.78891845e-10
7.9674826e-10
8.14014848e-10
8.30573666e-10
8.46269779e-10
8.60879261e-10
8.74147001e-10
8.85802969e-10
8.95655314e-10
9.03587629e-10
9.09624557e-10
9.13947878e-10
9.16880186e-10
9.18873529e-10
9.20478767e-10
9.22291755e-10
9.24928654e-10
9.28976033e-10
9.34968532e-10
9.4337995e-10
9.54644386e-10
9.69172596e-10
9.8737646e-10
1.00968002e-09
1.03654028e-09
1.06845483e-09
1.10595707e-09
1.14962176e-09
1.20008506e-09
1.25806872e-09
1.32440153e-09
1.39993952e-09
1.48563361e-09
1.58254866e-09
1.69192075e-09
1.81514467e-09
1.95395872e-09
2.1104561e-09
2.28717835e-09
2.48729488e-09
2.71470419e-09
2.97421347e-09
3.27188182e-09
3.61526809e-09
4.01381293e-09
4.47908392e-09
5.02551256e-09
5.67092779e-09
6.43715588e-09
7.35051394e-09
8.44156383e-09
9.74390157e-09
1.12903826e-08
1.3105628e-08
1.51934452e-08
1.75271256e-08
2.0041276e-08
2.2639739e-08
2.52018399e-08
2.76162762e-08
2.98019838e-08
3.17143309e-08
3.33358702e-08
3.46986681e-08
3.5849156e-08
3.68147389e-08
3.76532773e-08
3.83488816e-08
3.88802553e-08
3.93401836e-08
3.96163142e-08
3.94560983e-08
3.84486614e-08
3.62312065e-08
3.30054549e-08
2.94098795e-08
2.59089525e-08
2.27594719e-08
2.00824408e-08
1.79025858e-08
1.61565368e-08
1.47274207e-08
1.35596032e-08
1.26014192e-08
1.1784473e-08
1.10700227e-08
1.04309639e-08
9.84788921e-09
9.30729669e-09
8.79980741e-09
8.31911563e-09
7.86112743e-09
7.42330792e-09
7.00419204e-09
6.60300566e-09
6.21939219e-09
5.85321428e-09
5.50442554e-09
5.17297937e-09
4.85876256e-09
4.5615648e-09
4.2810665e-09
4.01683724e-09
3.76833431e-09
3.53491822e-09
3.31619719e-09
3.11152931e-09
2.92006449e-09
2.74111202e-09
2.57397299e-09
2.41795653e-09
2.27238734e-09
2.13660919e-09
2.00998743e-09
1.89191464e-09
1.78181532e-09
1.67914075e-09
1.5833627e-09
1.49398189e-09
1.41054057e-09
1.33261997e-09
1.25977958e-09
1.19168675e-09
1.12796537e-09
1.06836258e-09
1.01259274e-09
9.60300198e-10
9.11218255e-10
8.6513451e-10
8.219744e-10
7.81466045e-10
7.43411334e-10
7.07607065e-10
6.73874086e-10
6.42077594e-10
6.12039441e-10
5.83650142e-10
5.56735488e-10
5.31364013e-10
5.07336356e-10
4.84457183e-10
4.62688602e-10
4.41979886e-10
4.22322405e-10
4.03587452e-10
3.85684985e-10
3.68520651e-10
3.52085807e-10
3.36323508e-10
3.21133905e-10
3.06571985e-10
2.92566907e-10
2.79131938e-10
2.66293259e-10
2.5402307e-10
2.42321613e-10
2.3118631e-10
2.206041e-10
2.1054482e-10
2.00968652e-10
1.91846912e-10
1.83161961e-10
1.74898502e-10
1.67040862e-10
1.5957184e-10
1.5247237e-10
1.45723048e-10
1.3930341e-10
1.33167006e-10
1.27320765e-10
1.21721167e-10
1.16357904e-10
1.11219604e-10
1.06295275e-10
1.01574661e-10
9.70480262e-11
9.27057407e-11
8.85380074e-11
8.45348826e-11
8.06864608e-11
7.69833083e-11
7.34171776e-11
6.99820217e-11
6.66751808e-11
6.34983776e-11
6.04568674e-11
5.7552743e-11
5.48174988e-11
5.22439985e-11
4.98367401e-11
4.7594682e-11
4.55115064e-11
4.35766709e-11
4.17769405e-11
4.00981816e-11
3.85275552e-11
3.70564564e-11
3.56855403e-11
3.4435052e-11
3.33681172e-11
3.264361e-11
4.88916474e-12
8.47864986e-12
1.23048521e-11
1.74767322e-11
2.75953318e-11
6.06047088e-11
1.06902069e-10
1.5214935e-10
1.8852606e-10
2.14609412e-10
2.32876811e-10
2.48673e-10
2.64121157e-10
2.78543683e-10
2.90469501e-10
2.99001389e-10
3.04236936e-10
3.07183591e-10
3.0965699e-10
3.13117401e-10
3.17853404e-10
3.23278854e-10
3.28606253e-10
3.33335781e-10
3.37430234e-10
3.4126019e-10
3.45599857e-10
3.51242029e-10
3.58668976e-10
3.6773684e-10
3.77894533e-10
3.88505605e-10
3.99115603e-10
4.09594396e-10
4.2016746e-10
4.31371201e-10
4.43804542e-10
4.57771736e-10
4.73109375e-10
4.89303389e-10
5.05749764e-10
5.21976963e-10
5.37794754e-10
5.53297851e-10
5.68918036e-10
5.85136564e-10
6.02306836e-10
6.20416354e-10
6.39084993e-10
6.57741016e-10
6.75849486e-10
6.93092382e-10
7.09444727e-10
7.2516682e-10
7.40701463e-10
7.56519931e-10
7.72935758e-10
7.89999563e-10
8.07513761e-10
8.25144241e-10
8.42571309e-10
8.59603297e-10
8.76202816e-10
8.92396654e-10
9.08225955e-10
9.23662895e-10
9.38635626e-10
9.53060458e-10
9.66899431e-10
9.80171409e-10
9.92964471e-10
1.00538367e-09
1.01748305e-09
1.0292012e-09
1.04032267e-09
1.05056317e-09
1.05967198e-09
1.06750609e-09
1.0740719e-09
1.07957344e-09
1.08439298e-09
1.08903867e-09
1.0940991e-09
1.10019304e-09
1.10788743e-09
1.11769365e-09
1.12999945e-09
1.14509526e-09
1.16321342e-09
1.18457938e-09
1.20946111e-09
1.23820246e-09
1.2712286e-09
1.30905907e-09
1.35229634e-09
1.4016016e-09
1.45769139e-09
1.52137134e-09
1.59354385e-09
1.67520269e-09
1.76738369e-09
1.87121584e-09
1.98795938e-09
2.11907667e-09
2.26623917e-09
2.43147069e-09
2.61730553e-09
2.82679175e-09
3.06364414e-09
3.33242958e-09
3.63875086e-09
3.98971169e-09
4.39374922e-09
4.8612604e-09
5.40503388e-09
6.04078708e-09
6.78735001e-09
7.66698384e-09
8.70545133e-09
9.93080768e-09
1.1371536e-08
1.30517107e-08
1.49832089e-08
1.71529581e-08
1.95216909e-08
2.20171659e-08
2.45502954e-08
2.70057874e-08
2.92882061e-08
3.13340886e-08
3.31117422e-08
3.46019792e-08
3.58536142e-08
3.69118901e-08
3.77734655e-08
3.8505339e-08
3.90261962e-08
3.94824128e-08
3.97896988e-08
3.97438573e-08
3.90625744e-08
3.7425816e-08
3.47508639e-08
3.14472282e-08
2.8001033e-08
2.47276155e-08
2.18220486e-08
1.93621133e-08
1.73452351e-08
1.57147374e-08
1.4381599e-08
1.32854032e-08
1.23859449e-08
1.16057913e-08
1.09163309e-08
1.0295212e-08
9.72583527e-09
9.19635683e-09
8.69839918e-09
8.22624995e-09
7.77615263e-09
7.34574387e-09
6.93363698e-09
6.53908455e-09
6.1617289e-09
5.80142115e-09
5.45809772e-09
5.13170096e-09
4.82211505e-09
4.52913425e-09
4.25245054e-09
3.99165137e-09
3.74621494e-09
3.51549986e-09
3.2992676e-09
3.0967132e-09
2.90711931e-09
2.72981123e-09
2.56411339e-09
2.40935651e-09
2.26488499e-09
2.1300622e-09
2.00427203e-09
1.88692e-09
1.7774385e-09
1.67529203e-09
1.57997443e-09
1.49100015e-09
1.4079017e-09
1.33025327e-09
1.25765404e-09
1.18978167e-09
1.12627088e-09
1.06680939e-09
1.01111346e-09
9.5891063e-10
9.09991832e-10
8.6404174e-10
8.20901853e-10
7.80362233e-10
7.42367746e-10
7.06723353e-10
6.73077332e-10
6.41238656e-10
6.11144153e-10
5.82808699e-10
5.56020764e-10
5.30708918e-10
5.06627947e-10
4.83696014e-10
4.6198476e-10
4.41368094e-10
4.21741781e-10
4.029763e-10
3.85066446e-10
3.67962698e-10
3.5159723e-10
3.35866052e-10
3.20683379e-10
3.06127661e-10
2.92172546e-10
2.78788199e-10
2.65973881e-10
2.5371913e-10
2.42041593e-10
2.30934371e-10
2.20370522e-10
2.10316938e-10
2.00741621e-10
1.9162005e-10
1.82933396e-10
1.74665543e-10
1.66802102e-10
1.59327537e-10
1.52223607e-10
1.4547105e-10
1.39049608e-10
1.32903109e-10
1.27067838e-10
1.21474348e-10
1.16117443e-10
1.10985726e-10
1.0606809e-10
1.01354225e-10
9.68343257e-11
9.24986855e-11
8.83374575e-11
8.43406887e-11
8.04985154e-11
7.68016021e-11
7.32418511e-11
6.98133978e-11
6.65137683e-11
6.33448405e-11
6.03120975e-11
5.74203909e-11
5.46927902e-11
5.21285662e-11
4.97308156e-11
4.74978572e-11
4.54230523e-11
4.34956977e-11
4.17025155e-11
4.00294166e-11
3.84636436e-11
3.69966755e-11
3.56292578e-11
3.43817077e-11
3.33171345e-11
3.25941074e-11
1.13979366e-10
1.15772277e-10
1.16076129e-10
1.43476195e-10
2.41115459e-10
6.7159145e-10
9.05880922e-10
9.10014615e-10
8.07374404e-10
6.90592067e-10
6.07559341e-10
5.91265835e-10
6.00464305e-10
6.01449714e-10
5.8506818e-10
5.567436e-10
5.26009247e-10
5.02031889e-10
4.93424129e-10
4.98374536e-10
5.07447327e-10
5.13214017e-10
5.13407149e-10
5.09661201e-10
5.05131123e-10
5.03059353e-10
5.06581712e-10
5.17085137e-10
5.32735752e-10
5.4984888e-10
5.65409273e-10
5.78127234e-10
5.8831867e-10
5.97370431e-10
6.07283422e-10
6.20196177e-10
6.37223874e-10
6.57519826e-10
6.78954264e-10
6.99427909e-10
7.17730707e-10
7.33702999e-10
7.48052363e-10
7.61989068e-10
7.77077259e-10
7.94415976e-10
8.14063805e-10
8.34938311e-10
8.55444897e-10
8.74228365e-10
8.90625372e-10
9.04753866e-10
9.17345994e-10
9.29493943e-10
9.42307513e-10
9.56559365e-10
9.72380182e-10
9.89279557e-10
1.00644443e-09
1.02311085e-09
1.03883723e-09
1.05362091e-09
1.067718e-09
1.08136305e-09
1.09466288e-09
1.10754587e-09
1.11989552e-09
1.13164359e-09
1.14288301e-09
1.15383791e-09
1.16484474e-09
1.17619745e-09
1.18800386e-09
1.20009413e-09
1.21202882e-09
1.22330484e-09
1.23355827e-09
1.24262689e-09
1.25062159e-09
1.25793013e-09
1.26513846e-09
1.27294231e-09
1.28206936e-09
1.2932024e-09
1.30687667e-09
1.32349236e-09
1.34324824e-09
1.36622679e-09
1.39247792e-09
1.42210289e-09
1.45532369e-09
1.49250658e-09
1.53415426e-09
1.58089661e-09
1.63346978e-09
1.69267984e-09
1.75937632e-09
1.8345329e-09
1.91918987e-09
2.01448695e-09
2.12161245e-09
2.24184803e-09
2.37661152e-09
2.52756985e-09
2.69662828e-09
2.88609708e-09
3.09891575e-09
3.33858077e-09
3.60930323e-09
3.91624244e-09
4.2656921e-09
4.66530799e-09
5.12427483e-09
5.65377381e-09
6.26737472e-09
6.98151367e-09
7.81520313e-09
8.79018403e-09
9.9306819e-09
1.12612676e-08
1.28049767e-08
1.45777842e-08
1.65813495e-08
1.87895504e-08
2.11578843e-08
2.36122394e-08
2.60750875e-08
2.84312283e-08
3.05989397e-08
3.25279028e-08
3.41947719e-08
3.55710624e-08
3.67274096e-08
3.77031938e-08
3.84543977e-08
3.90722351e-08
3.95305088e-08
3.98843435e-08
3.99766606e-08
3.95795435e-08
3.8432952e-08
3.63680046e-08
3.34950607e-08
3.02264589e-08
2.69260594e-08
2.38407762e-08
2.11218548e-08
1.88221658e-08
1.69282673e-08
1.53870288e-08
1.41218245e-08
1.30761006e-08
1.22170052e-08
1.1464063e-08
1.07935305e-08
1.01862351e-08
9.62758049e-09
9.10690874e-09
8.61657618e-09
8.1512998e-09
7.70756787e-09
7.28314314e-09
6.87669387e-09
6.48749173e-09
6.11517799e-09
5.75959532e-09
5.4206689e-09
5.09833296e-09
4.79247081e-09
4.50288114e-09
4.22926601e-09
3.97122772e-09
3.72826257e-09
3.49971748e-09
3.28548585e-09
3.08464847e-09
2.89656834e-09
2.72059141e-09
2.55606115e-09
2.40232585e-09
2.25874575e-09
2.12469894e-09
1.99958349e-09
1.88281714e-09
1.7738413e-09
1.67212892e-09
1.57718522e-09
1.48853615e-09
1.40571846e-09
1.3283053e-09
1.2559061e-09
1.18820392e-09
1.12484948e-09
1.06551674e-09
1.00991572e-09
9.57789178e-10
9.0896121e-10
8.63095002e-10
8.20008108e-10
7.79498097e-10
7.41542217e-10
7.05964442e-10
6.72362844e-10
6.40542915e-10
6.10456616e-10
5.82144332e-10
5.55401231e-10
5.30121482e-10
5.06047786e-10
4.8311405e-10
4.61424411e-10
4.40840155e-10
4.21236151e-10
4.02483027e-10
3.84587003e-10
3.67510738e-10
3.51175207e-10
3.35468977e-10
3.20308308e-10
3.05771763e-10
2.91845546e-10
2.78491046e-10
2.65698269e-10
2.53462741e-10
2.41804695e-10
2.30715117e-10
2.2016363e-10
2.10116426e-10
2.00543964e-10
1.91423165e-10
1.82735441e-10
1.74465174e-10
1.66598731e-10
1.59121216e-10
1.52014862e-10
1.45260663e-10
1.3883867e-10
1.32680734e-10
1.26859255e-10
1.21270732e-10
1.15919128e-10
1.10792922e-10
1.05880882e-10
1.01172653e-10
9.66583744e-11
9.23282799e-11
8.81724811e-11
8.41810174e-11
8.03440613e-11
7.66523593e-11
7.30979351e-11
6.96750698e-11
6.63814366e-11
6.32190338e-11
6.01934994e-11
5.7310536e-11
5.45903666e-11
5.20339566e-11
4.96440043e-11
4.74184633e-11
4.53504707e-11
4.34292068e-11
4.16413611e-11
3.99728752e-11
3.84110582e-11
3.69474636e-11
3.55829116e-11
3.43377707e-11
3.32751369e-11
3.25533298e-11
1.10231102e-10
1.38725543e-10
1.37344404e-10
1.27093358e-10
1.15018179e-10
1.03307603e-10
9.26110214e-11
8.31211662e-11
7.47961628e-11
6.76117517e-11
6.14906515e-11
5.63154236e-11
5.19536702e-11
4.82769156e-11
4.51779732e-11
4.25692557e-11
4.03712497e-11
3.85106487e-11
3.69325771e-11
3.55949011e-11
3.44590676e-11
3.34912294e-11
3.266648e-11
3.19652166e-11
3.1369096e-11
3.08621919e-11
3.0432531e-11
3.00698647e-11
2.97658213e-11
2.9513185e-11
2.93054486e-11
2.91368362e-11
2.90031469e-11
2.89005187e-11
2.88253978e-11
2.87746587e-11
2.87458839e-11
2.87630808e-11
2.98918687e-11
7.34334932e-11
6.29485254e-11
9.77315496e-11
1.1200573e-10
1.15812151e-10
1.14271872e-10
1.10008559e-10
1.04170361e-10
9.74500692e-11
9.03226497e-11
8.3261479e-11
7.65940461e-11
7.04696675e-11
6.49465872e-11
6.00410202e-11
5.57302515e-11
5.19686832e-11
4.8702639e-11
4.58721665e-11
4.34209132e-11
4.13011437e-11
3.94701377e-11
3.78864609e-11
3.65155809e-11
3.53301554e-11
3.43060944e-11
3.34205253e-11
3.26552184e-11
3.1994782e-11
3.1426164e-11
3.09384357e-11
3.05219254e-11
3.01675098e-11
2.98685355e-11
2.96193182e-11
2.94149113e-11
2.92515505e-11
2.91274609e-11
2.90439684e-11
2.91603343e-11
3.40441241e-11
3.72503011e-11
6.57302592e-11
8.31969217e-11
9.2856851e-11
9.7363744e-11
9.85961489e-11
9.769249e-11
9.52817704e-11
9.17902234e-11
8.76016024e-11
8.3029189e-11
7.82984277e-11
7.35826163e-11
6.90227039e-11
6.47101082e-11
6.06940289e-11
5.70000383e-11
5.36392273e-11
5.06042748e-11
4.78778763e-11
4.54421326e-11
4.3276219e-11
4.1354809e-11
3.96537744e-11
3.81524999e-11
3.68306921e-11
3.56691956e-11
3.46498294e-11
3.37562496e-11
3.29747368e-11
3.22939957e-11
3.17029072e-11
3.1191687e-11
3.07519435e-11
3.03767277e-11
3.00597782e-11
2.97970764e-11
2.95833702e-11
2.94329625e-11
2.97511335e-11
3.11113142e-11
5.46472364e-11
7.10339817e-11
8.15436602e-11
8.76329136e-11
9.0553921e-11
9.12621509e-11
9.04170045e-11
8.84712974e-11
8.57523688e-11
8.2509287e-11
7.89316359e-11
7.51677937e-11
7.13428151e-11
6.7556439e-11
6.38812052e-11
6.03699807e-11
5.70621053e-11
5.39808462e-11
5.11362313e-11
4.85312097e-11
4.6162695e-11
4.40212509e-11
4.20942594e-11
4.03676461e-11
3.88272674e-11
3.74580543e-11
3.62444323e-11
3.5171319e-11