/*--------------------------------*- C++ -*----------------------------------*\
  =========                 |
  \\      /  F ield         | OpenFOAM: The Open Source CFD Toolbox
   \\    /   O peration     | Website:  https://openfoam.org
    \\  /    A nd           | Version:  6
     \\/     M anipulation  |
\*---------------------------------------------------------------------------*/
FoamFile
{
    version     2.0;
    format      ascii;
    class       volScalarField;
    location    "25000";
    object      HO2;
}
// * * * * * * * * * * * * * * * * * * * * * * * * * * * * * * * * * * * * * //

dimensions      [0 0 0 0 0 0 0];

internalField   nonuniform List<scalar> 
44870
(
2.21770456e-39
4.46127002e-39
6.71365991e-39
8.97325612e-39
1.12436262e-38
1.3526122e-38
1.58260377e-38
1.81454329e-38
2.04897551e-38
2.28611259e-38
2.52647432e-38
2.77025356e-38
3.01791634e-38
3.26962489e-38
3.5257698e-38
3.7864706e-38
4.05203544e-38
4.32253464e-38
4.59818592e-38
4.8790267e-38
5.16519118e-38
5.45670213e-38
5.7536328e-38
6.0559979e-38
6.36383884e-38
6.67715907e-38
6.99599634e-38
7.32262635e-38
8.07214498e-38
8.58269571e-37
1.45046765e-34
2.72292988e-32
5.14308077e-30
9.7469141e-28
1.84184592e-25
3.44896647e-23
6.30353925e-21
1.10221178e-18
1.73618841e-16
2.31347934e-14
2.21879423e-39
4.46624177e-39
6.73136396e-39
9.01711247e-39
1.13319063e-38
1.36792943e-38
1.60678768e-38
1.84999892e-38
2.09828917e-38
2.35175991e-38
2.61104859e-38
2.87613781e-38
3.14760338e-38
3.42534916e-38
3.70986969e-38
4.00103698e-38
4.29926704e-38
4.6043808e-38
4.916724e-38
5.23607535e-38
5.56272203e-38
5.89641528e-38
6.2373975e-38
6.58541056e-38
6.94066209e-38
7.302901e-38
7.67233872e-38
8.05676894e-38
1.00391024e-37
3.30121212e-36
6.47815359e-34
1.32122932e-31
2.71352113e-29
5.63822382e-27
1.17618091e-24
2.4758738e-22
5.18406637e-20
1.08209795e-17
2.10843533e-15
3.90265161e-13
2.23202253e-39
4.53242213e-39
6.90493164e-39
9.36098481e-39
1.19144524e-38
1.45686086e-38
1.73361931e-38
2.02144171e-38
2.32141181e-38
2.63302817e-38
2.95732886e-38
3.29345864e-38
3.64272346e-38
4.00363656e-38
4.37804503e-38
4.76400087e-38
5.1633901e-38
5.57402982e-38
5.99795886e-38
6.43254527e-38
6.88019195e-38
7.33764039e-38
7.80782538e-38
8.28667458e-38
8.77783845e-38
9.27627175e-38
9.78680632e-38
1.03819161e-37
2.77857648e-37
3.65557998e-35
7.84309967e-33
1.70703919e-30
3.71508751e-28
8.19774806e-26
1.80698776e-23
4.04913736e-21
9.04900961e-19
2.07108764e-16
4.53954556e-14
1.0182425e-11
2.43847316e-39
5.19481441e-39
8.22547573e-39
1.1518346e-38
1.5056737e-38
1.88314054e-38
2.28337022e-38
2.70534828e-38
3.14810646e-38
3.61020779e-38
4.09037991e-38
4.58681625e-38
5.09793476e-38
5.62171038e-38
6.15629365e-38
6.69971454e-38
7.24979519e-38
7.80487995e-38
8.36223595e-38
8.92099542e-38
9.47877158e-38
1.0033831e-37
1.05853002e-37
1.11303988e-37
1.16700258e-37
1.22003006e-37
1.27328781e-37
1.52262273e-37
4.50845672e-36
9.62224527e-34
2.11682893e-31
4.67473924e-29
1.03178403e-26
2.28865794e-24
5.07228345e-22
1.12882839e-19
2.50217053e-17
5.5430854e-15
1.18495502e-12
2.44895078e-10
5.30303885e-39
1.03452006e-38
1.51411506e-38
1.97387965e-38
2.41843118e-38
2.85072416e-38
3.27368125e-38
3.68922707e-38
4.09944085e-38
4.50568922e-38
4.90954636e-38
5.31202519e-38
5.71436199e-38
6.11730146e-38
6.52180026e-38
6.9283657e-38
7.33769662e-38
7.75008015e-38
8.16597915e-38
8.58549528e-38
9.00890479e-38
9.43616514e-38
9.86740096e-38
1.03024871e-37
1.07414199e-37
1.11849571e-37
1.18243623e-37
5.41238309e-37
9.09313581e-35
1.95572875e-32
4.20194882e-30
9.00709529e-28
1.92674191e-25
4.11289526e-23
8.76285598e-21
1.86311842e-18
3.95299047e-16
8.36363431e-14
1.76078025e-11
3.67118079e-09
7.30006207e-13
3.08860614e-12
8.1524802e-12
1.77812336e-11
3.49074682e-11
6.3875546e-11
1.10712592e-10
1.83562388e-10
2.92497789e-10
4.50552955e-10
6.72624547e-10
9.77775853e-10
1.38660823e-09
1.92527284e-09
2.62223826e-09
3.51031179e-09
4.62817984e-09
6.01564365e-09
7.72501784e-09
9.80514555e-09
1.2320646e-08
1.53362515e-08
1.89280939e-08
2.31820838e-08
2.81922673e-08
3.40700148e-08
4.0915203e-08
4.88871754e-08
5.80941769e-08
6.87445916e-08
8.09841067e-08
9.50170344e-08
1.11059925e-07
1.29291458e-07
1.49990503e-07
1.73329844e-07
1.99622733e-07
2.29052751e-07
2.61938942e-07
2.98506856e-07
3.39084554e-07
3.83965317e-07
4.33468349e-07
4.87919658e-07
5.47529673e-07
6.12546251e-07
6.83150652e-07
7.59511078e-07
8.41799037e-07
9.30212651e-07
1.02496499e-06
1.12630813e-06
1.23449183e-06
1.34979392e-06
1.47246194e-06
1.60274603e-06
1.74084396e-06
1.88693343e-06
2.04114709e-06
2.20359611e-06
2.37437328e-06
2.55354498e-06
2.74119073e-06
2.93735825e-06
3.14217503e-06
3.35573146e-06
3.57823598e-06
3.80981687e-06
4.05063271e-06
4.30057912e-06
4.55930251e-06
4.82593627e-06
5.09890198e-06
5.37592476e-06
5.65350316e-06
5.92744121e-06
6.19259635e-06
6.44312997e-06
6.67326666e-06
6.87782054e-06
7.0527118e-06
7.1954502e-06
7.30543483e-06
7.38398316e-06
7.43425253e-06
7.46096769e-06
7.47017269e-06
7.46874021e-06
7.46403582e-06
7.46348009e-06
7.47406276e-06
7.50200713e-06
7.55234653e-06
7.62876038e-06
7.73348857e-06
7.86737128e-06
8.02997673e-06
8.21984375e-06
8.4347469e-06
8.67202931e-06
8.92885094e-06
9.20227791e-06
9.48952562e-06
9.78808888e-06
1.00956856e-05
1.04103885e-05
1.07304831e-05
1.10542362e-05
1.13799152e-05
1.17053724e-05
1.20278735e-05
1.23436751e-05
1.26476263e-05
1.29326689e-05
1.31891399e-05
1.34040296e-05
1.35601532e-05
1.36353643e-05
1.36020281e-05
1.34272351e-05
1.30747685e-05
1.25108768e-05
1.1715726e-05
1.06988645e-05
9.5097502e-06
8.23153756e-06
6.95722774e-06
5.76392519e-06
4.69985384e-06
3.78537401e-06
3.02082623e-06
2.39481868e-06
1.89055025e-06
1.48980171e-06
1.17513693e-06
9.31051684e-07
7.44321492e-07
6.04076129e-07
5.01595799e-07
4.30244044e-07
3.86249774e-07
3.67484346e-07
3.74319767e-07
4.10091492e-07
4.78737895e-07
5.79709801e-07
7.08660858e-07
8.60699946e-07
1.03264432e-06
1.21787381e-06
1.41252183e-06
1.61341866e-06
1.81792451e-06
2.02254028e-06
2.22404839e-06
2.41976458e-06
2.60748071e-06
2.78538224e-06
2.95201953e-06
3.1062815e-06
3.24737321e-06
3.37479254e-06
3.48830698e-06
3.58792979e-06
3.67389407e-06
3.74662476e-06
3.80671027e-06
3.85487263e-06
3.89193723e-06
3.91880381e-06
3.93641941e-06
3.94575618e-06
3.94780289e-06
3.94356572e-06
3.9336417e-06
3.91912018e-06
3.90087612e-06
3.8795901e-06
3.85593176e-06
3.83050085e-06
3.80382941e-06
3.77638357e-06
3.74856702e-06
3.72072408e-06
3.69314264e-06
3.66605881e-06
3.6396674e-06
3.61413054e-06
3.58956363e-06
3.566043e-06
3.54360357e-06
3.52242018e-06
3.50251064e-06
3.48391048e-06
3.46653262e-06
3.4503288e-06
3.43542943e-06
3.42165992e-06
3.40887675e-06
3.396815e-06
3.38541477e-06
3.37512479e-06
3.36538515e-06
3.35564754e-06
3.34576447e-06
3.33563693e-06
3.32592429e-06
3.31582306e-06
3.30470912e-06
3.29251321e-06
3.27924225e-06
3.26525989e-06
3.24976669e-06
3.23274177e-06
3.2138957e-06
3.19328225e-06
3.17083782e-06
3.14591532e-06
3.11888211e-06
3.09054857e-06
3.06076932e-06
3.02983036e-06
2.99800911e-06
2.96542717e-06
2.93217336e-06
2.89832604e-06
2.8638942e-06
2.82886148e-06
2.79329754e-06
2.75742151e-06
2.72154638e-06
2.68598008e-06
2.6509495e-06
2.61654708e-06
2.58272644e-06
2.54935717e-06
2.51628746e-06
2.48316055e-06
2.44934731e-06
2.41467925e-06
2.37909511e-06
2.342474e-06
2.30472698e-06
2.26581513e-06
2.22574152e-06
2.18453754e-06
2.14225054e-06
2.09893672e-06
2.0546591e-06
2.00949205e-06
1.96353286e-06
1.91691982e-06
1.86985186e-06
1.82260178e-06
1.77550859e-06
1.72884859e-06
1.6830113e-06
1.63825221e-06
1.59471164e-06
1.55244994e-06
1.51146264e-06
1.47169525e-06
1.43306279e-06
1.39547314e-06
1.35886328e-06
1.32326482e-06
1.28894032e-06
1.25668053e-06
1.22847713e-06
1.20902774e-06
1.48496775e-11
5.40793908e-11
1.24358401e-10
2.45565161e-10
4.4819262e-10
7.74103537e-10
1.27502139e-09
2.01588835e-09
3.0688952e-09
4.52156936e-09
6.46414208e-09
9.00745173e-09
1.22598882e-08
1.63541007e-08
2.14207975e-08
2.75991873e-08
3.50412974e-08
4.38862199e-08
5.43064309e-08
6.6434482e-08
8.04379616e-08
9.64621444e-08
1.14644891e-07
1.351523e-07
1.58067823e-07
1.83568094e-07
2.1170479e-07
2.42617456e-07
2.76374938e-07
3.13080908e-07
3.52737212e-07
3.95376248e-07
4.40944359e-07
4.8939196e-07
5.40639732e-07
5.94591413e-07
6.51192025e-07
7.10344208e-07
7.7205133e-07
8.36239807e-07
9.02952349e-07
9.72133795e-07
1.04382378e-06
1.11805596e-06
1.19478112e-06
1.27413663e-06
1.35627318e-06
1.44141276e-06
1.52983229e-06
1.62184894e-06
1.71780135e-06
1.81805321e-06
1.92298331e-06
2.03300456e-06
2.14855614e-06
2.27011204e-06
2.39814421e-06
2.53310832e-06
2.6753971e-06
2.8253325e-06
2.98314772e-06
3.14901163e-06
3.32304003e-06
3.5053303e-06
3.69598828e-06
3.89507556e-06
4.10271046e-06
4.31891362e-06
4.54363888e-06
4.77656103e-06
5.01702451e-06
5.26381185e-06
5.51498549e-06
5.76786018e-06
6.01875317e-06
6.26338109e-06
6.49693318e-06
6.71434618e-06
6.91097581e-06
7.08301477e-06
7.22780422e-06
7.34414805e-06
7.43242057e-06
7.49451224e-06
7.53373543e-06
7.55460567e-06
7.5626528e-06
7.56404273e-06
7.56529563e-06
7.57294912e-06
7.59309267e-06
7.63108613e-06
7.69122847e-06
7.77658835e-06
7.88894033e-06
8.02880659e-06
8.1955822e-06
8.38776434e-06
8.60319948e-06
8.83938978e-06
9.09368066e-06
9.3633387e-06
9.64577767e-06
9.9386557e-06
1.02398063e-05
1.05473736e-05
1.08596304e-05
1.11747929e-05
1.14910144e-05
1.1805992e-05
1.2116776e-05
1.24194002e-05
1.2708479e-05
1.29766877e-05
1.32141148e-05
1.34075633e-05
1.35397601e-05
1.35886524e-05
1.35270128e-05
1.33228609e-05
1.29416848e-05
1.23524799e-05
1.15390739e-05
1.0514575e-05
9.33007228e-06
8.06719124e-06
6.81493861e-06
5.6459988e-06
4.60530032e-06
3.71145266e-06
2.96419814e-06
2.35222051e-06
1.85912332e-06
1.46718508e-06
1.15944262e-06
9.20827175e-07
7.384674e-07
6.01796092e-07
5.02333734e-07
4.33822858e-07
3.92574673e-07
3.7663138e-07
3.86490632e-07
4.25628851e-07
4.97479477e-07
6.01042536e-07
7.319008e-07
8.85249536e-07
1.05793855e-06
1.24359579e-06
1.43830648e-06
1.6389898e-06
1.84313275e-06
2.04712885e-06
2.24778995e-06
2.44249561e-06
2.62909377e-06
2.8058155e-06
2.97124891e-06
3.12431405e-06
3.26423965e-06
3.39054171e-06
3.50300097e-06
3.60163982e-06
3.68669681e-06
3.7585993e-06
3.81793549e-06
3.86542522e-06
3.90189011e-06
3.92822498e-06
3.94537114e-06
3.95429454e-06
3.9559784e-06
3.95143669e-06
3.94121778e-06
3.92644143e-06
3.90797614e-06
3.88649087e-06
3.8626507e-06
3.83705256e-06
3.81022555e-06
3.78263309e-06
3.75467668e-06
3.72669913e-06
3.698987e-06
3.67177459e-06
3.64525486e-06
3.61959006e-06
3.59489669e-06
3.57125067e-06
3.54867629e-06
3.52736091e-06
3.5073133e-06
3.48858265e-06
3.47106482e-06
3.45471173e-06
3.43966745e-06
3.42576959e-06
3.41286853e-06
3.40067413e-06
3.38914845e-06
3.37872932e-06
3.36888105e-06
3.35903957e-06
3.34903308e-06
3.33879074e-06
3.32896236e-06
3.31876683e-06
3.30754694e-06
3.29523838e-06
3.28186733e-06
3.26778471e-06
3.25222315e-06
3.23512096e-06
3.21619352e-06
3.19550123e-06
3.17298392e-06
3.14800844e-06
3.12093381e-06
3.09254348e-06
3.0626695e-06
3.03165926e-06
2.999777e-06
2.96713347e-06
2.93381249e-06
2.89989421e-06
2.86539347e-06
2.83029429e-06
2.79466238e-06
2.75871483e-06
2.72276443e-06
2.68711657e-06
2.65199509e-06
2.61749155e-06
2.58356126e-06
2.55007678e-06
2.51689216e-06
2.48365556e-06
2.44972991e-06
2.41495834e-06
2.37928117e-06
2.34257498e-06
2.30475035e-06
2.26576887e-06
2.22563376e-06
2.18437611e-06
2.1420427e-06
2.09868905e-06
2.05437764e-06
2.0091823e-06
1.96319994e-06
1.91656846e-06
1.8694864e-06
1.822226e-06
1.77512521e-06
1.72846156e-06
1.68262481e-06
1.63786672e-06
1.59432854e-06
1.55207075e-06
1.51108848e-06
1.47132688e-06
1.43270067e-06
1.39511739e-06
1.3585138e-06
1.32292146e-06
1.28860291e-06
1.25634883e-06
1.22815055e-06
1.20870537e-06
5.47170216e-10
1.7387006e-09
3.5673038e-09
6.46178883e-09
1.09153041e-08
1.75057037e-08
2.68002182e-08
3.92995691e-08
5.53787538e-08
7.53557728e-08
9.94463453e-08
1.27857281e-07
1.60682295e-07
1.97988934e-07
2.3971185e-07
2.85740554e-07
3.35886136e-07
3.89900703e-07
4.47541247e-07
5.08509428e-07
5.72512978e-07
6.39201841e-07
7.08211228e-07
7.79161307e-07
8.51669904e-07
9.25450878e-07
1.00015211e-06
1.07551194e-06
1.15137011e-06
1.22744606e-06
1.30347459e-06
1.37921063e-06
1.45444438e-06
1.52908004e-06
1.60309511e-06
1.67663248e-06
1.7498951e-06
1.82315534e-06
1.89667923e-06
1.97066139e-06
2.04530308e-06
2.12074148e-06
2.19723208e-06
2.27508133e-06
2.35457544e-06
2.43619325e-06
2.52035553e-06
2.60741666e-06
2.69762216e-06
2.79112132e-06
2.88800322e-06
2.98839475e-06
3.09250171e-06
3.2006476e-06
3.31324977e-06
3.43076131e-06
3.55358306e-06
3.68200813e-06
3.81619812e-06
3.95621584e-06
4.10208222e-06
4.25384485e-06
4.41158089e-06
4.5754498e-06
4.74555145e-06
4.92195575e-06
5.10469493e-06
5.29360287e-06
5.48830397e-06
5.68807525e-06
5.89174132e-06
6.09752745e-06
6.30301415e-06
6.50517114e-06
6.70049863e-06
6.88532089e-06
7.05619741e-06
7.21008897e-06
7.34477631e-06
7.4589704e-06
7.55236344e-06
7.62561176e-06
7.68028486e-06
7.71877298e-06
7.74421188e-06
7.76040899e-06
7.7717395e-06
7.7829739e-06
7.79904258e-06
7.82481843e-06
7.86478685e-06
7.9228029e-06
8.00186262e-06
8.10397751e-06
8.23013772e-06
8.38035246e-06
8.553771e-06
8.7488832e-06
8.96373346e-06
9.19616369e-06
9.44387773e-06
9.70453215e-06
9.97590507e-06
1.0255936e-05
1.05426487e-05
1.08342728e-05
1.11290196e-05
1.14249752e-05
1.17200135e-05
1.20114929e-05
1.22960294e-05
1.25692004e-05
1.28251168e-05
1.30559328e-05
1.32512698e-05
1.33976194e-05
1.34776292e-05
1.34695898e-05
1.33473396e-05
1.30811412e-05
1.26403943e-05
1.20001347e-05
1.11518417e-05
1.01155239e-05
8.94473092e-06
7.71709361e-06
6.51305629e-06
5.39630905e-06
4.40526724e-06
3.55510103e-06
2.84444489e-06
2.2621847e-06
1.79279587e-06
1.41960357e-06
1.12662955e-06
8.99729073e-07
7.26766617e-07
5.97825458e-07
5.04921686e-07
4.42710876e-07
4.07557739e-07
3.97758314e-07
4.14440641e-07
4.60937255e-07
5.39614949e-07
6.48606959e-07
7.83449178e-07
9.39509805e-07
1.11361119e-06
1.30014128e-06
1.49490739e-06
1.69506187e-06
1.89839112e-06
2.10099009e-06
2.29976434e-06
2.49223524e-06
2.67637243e-06
2.85050641e-06
3.01330555e-06
3.16375608e-06
3.30113745e-06
3.42500399e-06
3.5351646e-06
3.63166083e-06
3.71474273e-06
3.78484252e-06
3.84254772e-06
3.88857321e-06
3.92373227e-06
3.94890896e-06
3.96503211e-06
3.97305417e-06
3.97394649e-06
3.96874299e-06
3.95787784e-06
3.94254392e-06
3.92359308e-06
3.90167047e-06
3.87743133e-06
3.85146588e-06
3.82429674e-06
3.79638152e-06
3.76811731e-06
3.7398437e-06
3.71184352e-06
3.6843467e-06
3.65754367e-06
3.63159859e-06
3.60662812e-06
3.58270343e-06
3.55982056e-06
3.53821764e-06
3.51787788e-06
3.49885472e-06
3.48102281e-06
3.46433452e-06
3.44898244e-06
3.43481168e-06
3.42163843e-06
3.40915275e-06
3.3973411e-06
3.38665893e-06
3.37657184e-06
3.36648909e-06
3.35620859e-06
3.34570634e-06
3.33565166e-06
3.32524254e-06
3.31377516e-06
3.3012085e-06
3.28762184e-06
3.27334912e-06
3.25762868e-06
3.24033897e-06
3.22121746e-06
3.20036272e-06
3.17771874e-06
3.15249882e-06
3.12536849e-06
3.09687284e-06
3.06683195e-06
3.03568268e-06
3.00365748e-06
2.97086244e-06
2.93739023e-06
2.90332366e-06
2.86867486e-06
2.83342414e-06
2.79763828e-06
2.76153485e-06
2.72542156e-06
2.68959559e-06
2.65427482e-06
2.61955018e-06
2.58538063e-06
2.55164456e-06
2.51820784e-06
2.48473088e-06
2.45055867e-06
2.41556193e-06
2.3796816e-06
2.34278918e-06
2.30479461e-06
2.26566074e-06
2.22539108e-06
2.18401599e-06
2.14158103e-06
2.09814032e-06
2.05375504e-06
2.00849796e-06
1.96246509e-06
1.9157935e-06
1.86868087e-06
1.8213982e-06
1.77428059e-06
1.72762466e-06
1.68177462e-06
1.63701847e-06
1.59348569e-06
1.55123659e-06
1.51026543e-06
1.4705166e-06
1.43190408e-06
1.39433479e-06
1.35774505e-06
1.32216619e-06
1.28786067e-06
1.25561909e-06
1.22743224e-06
1.20799611e-06
2.10799075e-08
5.2808985e-08
9.4237057e-08
1.48390168e-07
2.20032118e-07
3.12926876e-07
4.24423626e-07
5.48860675e-07
6.80715312e-07
8.16365417e-07
9.54036969e-07
1.09308517e-06
1.23231224e-06
1.37016028e-06
1.50467617e-06
1.6344543e-06
1.75846465e-06
1.87657865e-06
1.98921372e-06
2.09662361e-06
2.1987749e-06
2.29528488e-06
2.38594404e-06
2.470676e-06
2.55006001e-06
2.62490517e-06
2.69633851e-06
2.76522334e-06
2.83219809e-06
2.8973096e-06
2.9605405e-06
3.0219577e-06
3.08196335e-06
3.14131859e-06
3.20105252e-06
3.26221138e-06
3.32549427e-06
3.39110513e-06
3.45875547e-06
3.52795858e-06
3.59837467e-06
3.67000457e-06
3.74331762e-06
3.81910069e-06
3.89812297e-06
3.98105933e-06
4.06801661e-06
4.15857248e-06
4.2519855e-06
4.34751455e-06
4.44472689e-06
4.54365375e-06
4.64475054e-06
4.7487286e-06
4.85625411e-06
4.96769086e-06
5.08295505e-06
5.20159019e-06
5.32298954e-06
5.44663708e-06
5.57230406e-06
5.70003859e-06
5.83009408e-06
5.96273206e-06
6.0981137e-06
6.23623581e-06
6.37692149e-06
6.5198142e-06
6.66432768e-06
6.80955134e-06
6.95412924e-06
7.09621312e-06
7.23355876e-06
7.36369307e-06
7.4842856e-06
7.59336083e-06
7.68978342e-06
7.77306811e-06
7.84350718e-06
7.9019766e-06
7.94981465e-06
7.98861838e-06
8.02019258e-06
8.0465522e-06
8.06992035e-06
8.09282804e-06
8.11808666e-06
8.14874475e-06
8.18794657e-06
8.2387741e-06
8.3040322e-06
8.38605585e-06
8.48654517e-06
8.60649867e-06
8.74619864e-06
8.90524424e-06
9.08266488e-06
9.2770814e-06
9.48687835e-06
9.7103321e-06
9.9455712e-06
1.01906977e-05
1.04438639e-05
1.07032607e-05
1.09670623e-05
1.12334686e-05
1.15005527e-05
1.17661504e-05
1.20276938e-05
1.22820392e-05
1.25252413e-05
1.27522429e-05
1.29565046e-05
1.31295523e-05
1.32605047e-05
1.33356551e-05
1.33378236e-05
1.32461823e-05
1.30366283e-05
1.26833379e-05
1.21619812e-05
1.14565779e-05
1.056893e-05
9.52701946e-06
8.38543488e-06
7.21453568e-06
6.08258496e-06
5.04146999e-06
4.12141228e-06
3.33337607e-06
2.67473482e-06
2.13477456e-06
1.69925144e-06
1.35296023e-06
1.08127898e-06
8.713879e-07
7.12168909e-07
5.94656741e-07
5.11932664e-07
4.59223858e-07
4.33174482e-07
4.32988215e-07
4.60204115e-07
5.17628332e-07
6.06010235e-07
7.22569167e-07
8.62914966e-07
1.02265855e-06
1.19827143e-06
1.38597418e-06
1.58059904e-06
1.77979459e-06
1.98186059e-06
2.18224212e-06
2.37808232e-06
2.56712514e-06
2.74751867e-06
2.91773922e-06
3.07657174e-06
3.22309699e-06
3.35666726e-06
3.47689143e-06
3.58361833e-06
3.67691653e-06
3.75705185e-06
3.82446293e-06
3.87973552e-06
3.92357658e-06
3.95678668e-06
3.98023364e-06
3.99482765e-06
4.00150098e-06
4.00120674e-06
3.99502103e-06
3.983019e-06
3.96700788e-06
3.94732023e-06
3.9247354e-06
3.89989215e-06
3.87336971e-06
3.84568087e-06
3.81727476e-06
3.78854218e-06
3.75981766e-06
3.73137767e-06
3.70344595e-06
3.67621126e-06
3.6498405e-06
3.62444724e-06
3.60008984e-06
3.57677659e-06
3.55470113e-06
3.53392097e-06
3.51443747e-06
3.49612493e-06
3.47892908e-06
3.46312375e-06
3.44853553e-06
3.43492569e-06
3.42202186e-06
3.40976585e-06
3.39870962e-06
3.38823735e-06
3.37777072e-06
3.36709339e-06
3.35618717e-06
3.3458225e-06
3.33505627e-06
3.32319944e-06
3.31024616e-06
3.29633821e-06
3.2818075e-06
3.26581305e-06
3.24822864e-06
3.2288089e-06
3.20771982e-06
3.18489936e-06
3.1596386e-06
3.13229944e-06
3.10340802e-06
3.07312927e-06
3.04178039e-06
3.00952406e-06
2.97648556e-06
2.94277943e-06
2.90849262e-06
2.87361843e-06
2.83812836e-06
2.80210146e-06
2.76575963e-06
2.72940008e-06
2.69330486e-06
2.65768339e-06
2.62262631e-06
2.58809771e-06
2.55398387e-06
2.52016662e-06
2.48632638e-06
2.45178349e-06
2.4164517e-06
2.38026678e-06
2.34309422e-06
2.30484388e-06
2.2654807e-06
2.22500861e-06
2.18345686e-06
2.14086914e-06
2.09729752e-06
2.05280124e-06
2.00745146e-06
1.96134285e-06
1.91461128e-06
1.86745308e-06
1.82013746e-06
1.77299562e-06
1.72633061e-06
1.68048193e-06
1.63572881e-06
1.5922047e-06
1.54996909e-06
1.50901504e-06
1.46928572e-06
1.430694e-06
1.39314599e-06
1.35657738e-06
1.32101905e-06
1.28673329e-06
1.25451071e-06
1.22634137e-06
1.20691878e-06
7.47842628e-07
1.19118356e-06
1.54116844e-06
1.93798406e-06
2.47481664e-06
3.11168347e-06
3.66370634e-06
4.05091271e-06
4.29338245e-06
4.44825039e-06
4.57184201e-06
4.69168752e-06
4.79919107e-06
4.88020575e-06
4.9295027e-06
4.95213636e-06
4.9602418e-06
4.96762033e-06
4.98287514e-06
5.00309427e-06
5.02068998e-06
5.03028785e-06
5.03123785e-06
5.02732678e-06
5.02476005e-06
5.02953349e-06
5.04511254e-06
5.06997921e-06
5.09901252e-06
5.12733449e-06
5.15268944e-06
5.17584679e-06
5.1999642e-06
5.22920374e-06
5.2671487e-06
5.31512214e-06
5.37119294e-06
5.43124012e-06
5.49115144e-06
5.54874805e-06
5.60431513e-06
5.66016027e-06
5.71947493e-06
5.78517559e-06
5.85863159e-06
5.93913265e-06
6.02377897e-06
6.10888948e-06
6.19155963e-06
6.27062956e-06
6.3467775e-06
6.42195657e-06
6.49848993e-06
6.57818446e-06
6.66157709e-06
6.74776941e-06
6.83482401e-06
6.92066158e-06
7.00388092e-06
7.0841259e-06
7.1620108e-06
7.23862423e-06
7.31506123e-06
7.39194456e-06
7.46958414e-06
7.54799543e-06
7.6270962e-06
7.70679741e-06
7.78685029e-06
7.86662533e-06
7.94498228e-06
8.02029771e-06
8.09075937e-06
8.15471816e-06
8.21112714e-06
8.25970868e-06
8.3012683e-06
8.3370823e-06
8.36883055e-06
8.39826174e-06
8.42698572e-06
8.45631709e-06
8.48730158e-06
8.52084954e-06
8.55784866e-06
8.59941913e-06
8.64689321e-06
8.70185442e-06
8.76604536e-06
8.84121223e-06
8.92893538e-06
9.03047384e-06
9.14664608e-06
9.27780207e-06
9.4238199e-06
9.58413371e-06
9.75782612e-06
9.94376812e-06
1.0140706e-05
1.03472946e-05
1.05620189e-05
1.07833187e-05
1.10095735e-05
1.12390742e-05
1.14699995e-05
1.17003795e-05
1.19280374e-05
1.21504183e-05
1.23644181e-05
1.25662867e-05
1.2751472e-05
1.29142599e-05
1.30474662e-05
1.31420729e-05
1.31869043e-05
1.31684978e-05
1.30703939e-05
1.28735791e-05
1.25574738e-05
1.21022985e-05
1.14923148e-05
1.07226009e-05
9.80583579e-06
8.77621495e-06
7.68580654e-06
6.59425802e-06
5.55552552e-06
4.60882968e-06
3.77601079e-06
3.06391315e-06
2.46882772e-06
1.98066182e-06
1.58683136e-06
1.27388073e-06
1.02875249e-06
8.4030809e-07
6.98592154e-07
5.96360135e-07
5.2705901e-07
4.86822122e-07
4.73248619e-07
4.86327961e-07
5.27716696e-07
5.98988647e-07
6.99055597e-07
8.24546876e-07
9.71296377e-07
1.13522136e-06
1.31285421e-06
1.50068914e-06
1.6946955e-06
1.89233941e-06
2.09271254e-06
2.28994465e-06
2.48173712e-06
2.6661338e-06
2.84151465e-06
3.00653205e-06
3.16012216e-06
3.30148063e-06
3.43004928e-06
3.54550387e-06
3.6477415e-06
3.73686303e-06
3.81315265e-06
3.87705553e-06
3.92915404e-06
3.97014379e-06
4.00080825e-06
4.02199377e-06
4.03458611e-06
4.03949113e-06
4.03763646e-06
4.03018188e-06
4.01680963e-06
3.99974875e-06
3.97908848e-06
3.95562281e-06
3.92997437e-06
3.90270782e-06
3.87432318e-06
3.84525887e-06
3.81589749e-06
3.78656625e-06
3.75753328e-06
3.72901565e-06
3.7012015e-06
3.67425851e-06
3.64829291e-06
3.62334556e-06
3.59944054e-06
3.57675408e-06
3.55538213e-06
3.53525779e-06
3.51630324e-06
3.49844726e-06
3.48204103e-06
3.46687471e-06
3.45264918e-06
3.43922146e-06
3.42638911e-06
3.41482655e-06
3.40379548e-06
3.39279201e-06
3.3816286e-06
3.37019859e-06
3.35941979e-06
3.34811885e-06
3.33572928e-06
3.32229237e-06
3.30797472e-06
3.29309999e-06
3.27669059e-06
3.25870676e-06
3.23890757e-06
3.21752185e-06
3.19445539e-06
3.1689747e-06
3.14134438e-06
3.11206849e-06
3.08150679e-06
3.04989231e-06
3.01730654e-06
2.9839324e-06
2.94991181e-06
2.91533092e-06
2.88014853e-06
2.84432732e-06
2.80797066e-06
2.77130743e-06
2.73461745e-06
2.6981623e-06
2.66214183e-06
2.6266461e-06
2.59164484e-06
2.55703353e-06
2.52271149e-06
2.48838776e-06
2.45335762e-06
2.41759147e-06
2.38100641e-06
2.34346422e-06
2.30487618e-06
2.26521032e-06
2.22447106e-06
2.18268618e-06
2.13989689e-06
2.09615258e-06
2.05150998e-06
2.00603814e-06
1.95982997e-06
1.91301978e-06
1.86580213e-06
1.81844394e-06
1.7712724e-06
1.72459611e-06
1.67874825e-06
1.63400042e-06
1.59048872e-06
1.54827168e-06
1.50734093e-06
1.46763795e-06
1.42907419e-06
1.39155475e-06
1.35501456e-06
1.31948378e-06
1.2852245e-06
1.2530274e-06
1.22488167e-06
1.20547716e-06
6.81000971e-06
8.76890517e-06
9.70869678e-06
1.15263798e-05
1.41984546e-05
1.5852866e-05
1.48815342e-05
1.28242934e-05
1.09376862e-05
9.69571856e-06
9.13601299e-06
8.97119902e-06
8.79831274e-06
8.50871072e-06
8.15896812e-06
7.83571703e-06
7.60357704e-06
7.48977172e-06
7.4627486e-06
7.43334493e-06
7.35442204e-06
7.23162444e-06
7.09533648e-06
6.97910299e-06
6.90579972e-06
6.8822328e-06
6.89639618e-06
6.91893267e-06
6.92446514e-06
6.90615361e-06
6.87246172e-06
6.83811107e-06
6.81741386e-06
6.8199444e-06
6.84804281e-06
6.8948276e-06
6.94612877e-06
6.98874457e-06
7.01729702e-06
7.03488208e-06
7.04941178e-06
7.0696419e-06
7.10211704e-06
7.14960926e-06
7.20999292e-06
7.27672251e-06
7.3412114e-06
7.39714809e-06
7.44283768e-06
7.48081259e-06
7.5159174e-06
7.55322075e-06
7.59636661e-06
7.6465957e-06
7.70236779e-06
7.7602059e-06
7.81623659e-06
7.86788337e-06
7.91462883e-06
7.95771278e-06
7.99925722e-06
8.04129584e-06
8.08508996e-06
8.13092622e-06
8.17868494e-06
8.22818263e-06
8.27942081e-06
8.332447e-06
8.38710198e-06
8.44263965e-06
8.49768932e-06
8.55040899e-06
8.59899991e-06
8.64218892e-06
8.67960895e-06
8.71186818e-06
8.74062772e-06
8.76774297e-06
8.79514658e-06
8.82450362e-06
8.85702103e-06
8.8933836e-06
8.93388194e-06
8.97863712e-06
9.02779732e-06
9.08184056e-06
9.14152851e-06
9.20795244e-06
9.28241107e-06
9.36623761e-06
9.46063167e-06
9.56650967e-06
9.68441451e-06
9.81448916e-06
9.95649694e-06
1.01098537e-05
1.0273682e-05
1.04469714e-05
1.06286564e-05
1.08174366e-05
1.10119487e-05
1.12107017e-05
1.14120856e-05
1.16143349e-05
1.1815521e-05
1.20135307e-05
1.22059522e-05
1.23899223e-05
1.2561973e-05
1.27179732e-05
1.28530642e-05
1.29611804e-05
1.30348414e-05
1.30648732e-05
1.30402275e-05
1.29481753e-05
1.27732774e-05
1.24986467e-05
1.2107303e-05
1.15849938e-05
1.09225557e-05
1.01224339e-05
9.20290723e-06
8.19942516e-06
7.15946061e-06
6.13409505e-06
5.16778466e-06
4.29201365e-06
3.5237506e-06
2.86757106e-06
2.31932122e-06
1.86942117e-06
1.50664339e-06
1.21874814e-06
9.93714817e-07
8.21771384e-07
6.94074836e-07
6.03946571e-07
5.45672995e-07
5.15885028e-07
5.12882048e-07
5.37118096e-07
5.89851597e-07
6.71418231e-07
7.79786334e-07
9.11479741e-07
1.06257864e-06
1.2292438e-06
1.40807986e-06
1.59580593e-06
1.78885568e-06
1.98482634e-06
2.18329145e-06
2.37770867e-06
2.56604782e-06
2.74656614e-06
2.91781163e-06
3.0785804e-06
3.22791781e-06
3.36510509e-06
3.48965012e-06
3.60127799e-06
3.69992056e-06
3.78570163e-06
3.85891782e-06
3.92001781e-06
3.96958006e-06
4.00829028e-06
4.03691775e-06
4.05629135e-06
4.06727725e-06
4.07076018e-06
4.06764485e-06
4.05919374e-06
4.04470115e-06
4.02676896e-06
4.00531727e-06
3.9811304e-06
3.95482066e-06
3.92694117e-06
3.8979821e-06
3.86837336e-06
3.83849029e-06
3.80865407e-06
3.77912793e-06
3.75012524e-06
3.72183074e-06
3.69440844e-06
3.66796178e-06
3.64253016e-06
3.61813925e-06
3.59495083e-06
3.57307248e-06
3.55242885e-06
3.53294844e-06
3.51457098e-06
3.4976479e-06
3.48199324e-06
3.46727019e-06
3.45340248e-06
3.44012621e-06
3.42808941e-06
3.41660072e-06
3.40516403e-06
3.39360332e-06
3.38176576e-06
3.37058716e-06
3.35884733e-06
3.34602378e-06
3.33220968e-06
3.31755258e-06
3.30233975e-06
3.28559202e-06
3.26729282e-06
3.24720748e-06
3.22555758e-06
3.20223253e-06
3.17652848e-06
3.14868031e-06
3.11915263e-06
3.08834326e-06
3.05647644e-06
3.02362082e-06
2.98998242e-06
2.955706e-06
2.92086477e-06
2.88541463e-06
2.84932389e-06
2.81270228e-06
2.77577447e-06
2.73880896e-06
2.70205746e-06
2.66571218e-06
2.62986079e-06
2.5944767e-06
2.55946293e-06
2.52472895e-06
2.49000895e-06
2.45458689e-06
2.41847841e-06
2.38157119e-06
2.34372978e-06
2.30486808e-06
2.26495695e-06
2.22400122e-06
2.18202747e-06
2.13907489e-06
2.0951907e-06
2.05042964e-06
2.00485909e-06
1.95857057e-06
1.91169713e-06
1.86443192e-06
1.81704009e-06
1.76984616e-06
1.72316134e-06
1.67731422e-06
1.63257193e-06
1.58907138e-06
1.54687031e-06
1.50595918e-06
1.46627828e-06
1.42773787e-06
1.39024214e-06
1.3537254e-06
1.31821739e-06
1.28398009e-06
1.25180409e-06
1.22367786e-06
1.20428822e-06
1.80738279e-06
2.21421213e-06
2.19696134e-06
2.07863395e-06
1.94767721e-06
1.82581035e-06
1.71721566e-06
1.62208852e-06
1.53891544e-06
1.46713808e-06
1.40587888e-06
1.35388265e-06
1.30981208e-06
1.27244042e-06
1.24074061e-06
1.21385393e-06
1.19099515e-06
1.17145112e-06
1.15468781e-06
1.14029016e-06
1.12787618e-06
1.11711337e-06
1.10775723e-06
1.09961359e-06
1.09249924e-06
1.08625642e-06
1.08076713e-06
1.07593003e-06
1.07166311e-06
1.06789458e-06
1.06456051e-06
1.06160575e-06
1.05899563e-06
1.05669991e-06
1.05469972e-06
1.05299754e-06
1.05162348e-06
1.05081405e-06
1.05512312e-06
1.28944771e-06
9.59551409e-07
1.50257638e-06
1.74614154e-06
1.84115636e-06
1.86124195e-06
1.84267685e-06
1.80081204e-06
1.74469108e-06
1.68044469e-06
1.6143119e-06
1.55062381e-06
1.49134472e-06
1.43729952e-06
1.38890386e-06
1.34610511e-06
1.30852668e-06
1.27567198e-06
1.24699341e-06
1.22196942e-06
1.2001465e-06
1.18111449e-06
1.16447783e-06
1.14990537e-06
1.13713292e-06
1.1259266e-06
1.11606384e-06
1.10736746e-06
1.09968748e-06
1.09289625e-06
1.08688719e-06
1.08156643e-06
1.07684487e-06
1.07266157e-06
1.06896699e-06
1.06572377e-06
1.0629166e-06
1.06057177e-06
1.05873639e-06
1.0581724e-06
1.08147793e-06
5.40033489e-07
9.78266557e-07
1.26879436e-06
1.45123397e-06
1.56060529e-06
1.62209585e-06
1.65111402e-06
1.65628417e-06
1.64355707e-06
1.61834401e-06
1.58511107e-06
1.54710194e-06
1.50679413e-06
1.4662127e-06
1.42674804e-06
1.38922637e-06
1.3541397e-06
1.32178138e-06
1.29221652e-06
1.2653719e-06
1.24114203e-06
1.21937794e-06
1.19987156e-06
1.18241539e-06
1.16682995e-06
1.15293428e-06
1.14055371e-06
1.12951939e-06
1.11967737e-06
1.11089857e-06
1.10307803e-06
1.09611106e-06
1.08990495e-06
1.0843813e-06
1.07947806e-06
1.07514061e-06
1.07134221e-06
1.06803394e-06
1.06525565e-06
1.06477459e-06
4.42824174e-07
8.01994068e-07
1.07293864e-06
1.26615729e-06
1.39805745e-06
1.48407494e-06
1.53656258e-06
1.56433129e-06
1.57365794e-06
1.56921352e-06
1.5546618e-06
1.53287394e-06
1.50611441e-06
1.47626696e-06
1.44485174e-06
1.41301563e-06
1.38161244e-06
1.35128787e-06
1.32247419e-06
1.29542784e-06
1.27029831e-06
1.247149e-06
1.22595945e-06
1.20666173e-06
1.18916081e-06
1.1733518e-06
1.15911304e-06
1.14631185e-06