/*--------------------------------*- C++ -*----------------------------------*\
  =========                 |
  \\      /  F ield         | OpenFOAM: The Open Source CFD Toolbox
   \\    /   O peration     | Website:  https://openfoam.org
    \\  /    A nd           | Version:  6
     \\/     M anipulation  |
\*---------------------------------------------------------------------------*/
FoamFile
{
    version     2.0;
    format      ascii;
    class       volScalarField;
    location    "25000";
    object      HOCN;
}
// * * * * * * * * * * * * * * * * * * * * * * * * * * * * * * * * * * * * * //

dimensions      [0 0 0 0 0 0 0];

internalField   nonuniform List<scalar> 
44870
(
5.09348152e-105
6.29048571e-103
7.73042939e-101
9.60715244e-99
1.20842669e-96
1.53938543e-94
1.98732403e-92
2.6018245e-90
3.45701242e-88
4.66481662e-86
6.39692805e-84
8.91981727e-82
1.26528694e-79
1.82653399e-77
2.68381438e-75
4.01435777e-73
6.11196785e-71
9.47127326e-69
1.49334633e-66
2.39518098e-64
3.90600052e-62
6.4744336e-60
1.09019524e-57
1.86413965e-55
3.23486663e-53
5.6946837e-51
1.01622062e-48
1.83752594e-46
3.36315029e-44
6.22733506e-42
1.16458348e-39
2.19758041e-37
4.17176836e-35
7.94982001e-33
1.51132933e-30
2.84883011e-28
5.24498136e-26
9.24652774e-24
1.47013048e-21
1.97947904e-19
3.67776966e-105
4.51442164e-103
5.52043025e-101
6.84500633e-99
8.62493998e-97
1.10650275e-94
1.44826705e-92
1.93738908e-90
2.65307519e-88
3.72342324e-86
5.35983627e-84
7.91572783e-82
1.19924134e-79
1.86284993e-77
2.96392664e-75
4.82595856e-73
8.02890243e-71
1.36339005e-68
2.35905144e-66
4.15545453e-64
7.4394154e-62
1.35291626e-59
2.49514636e-57
4.66685574e-55
8.8367547e-53
1.69513025e-50
3.28745467e-48
6.45505909e-46
1.27998239e-43
2.56936211e-41
5.20286144e-39
1.06653608e-36
2.20237916e-34
4.60377819e-32
9.66780667e-30
2.05021454e-27
4.32877529e-25
9.12260714e-23
1.79767857e-20
3.37202661e-18
1.57931603e-105
1.88878941e-103
2.2737338e-101
2.82824284e-99
3.66499694e-97
4.97549531e-95
7.10322468e-93
1.06748228e-90
1.68537972e-88
2.78578043e-86
4.79537387e-84
8.54719431e-82
1.56840403e-79
2.9478768e-77
5.64766274e-75
1.10008143e-72
2.16962489e-70
4.32813885e-68
8.70768775e-66
1.76666321e-63
3.60739821e-61
7.41901606e-59
1.53350108e-56
3.19197051e-54
6.67157566e-52
1.40498633e-49
2.96910407e-47
6.32778309e-45
1.35231385e-42
2.91905372e-40
6.31252835e-38
1.38136597e-35
3.02404604e-33
6.71725189e-31
1.49142456e-28
3.36975229e-26
7.60092388e-24
1.75890504e-21
3.90674938e-19
8.91811252e-17
3.28286864e-106
3.92397215e-104
5.3165537e-102
8.34664001e-100
1.49484471e-97
2.96486231e-95
6.30876924e-93
1.40295028e-90
3.19935216e-88
7.38894766e-86
1.71446147e-83
3.97718847e-81
9.19508446e-79
2.11598543e-76
4.84117733e-74
1.10143267e-71
2.49133775e-69
5.60724709e-67
1.25563641e-64
2.80007645e-62
6.22213759e-60
1.37884624e-57
3.04790725e-55
6.7286782e-53
1.48315109e-50
3.26963036e-48
7.2034473e-46
1.589133e-43
3.50550071e-41
7.75527936e-39
1.71599071e-36
3.81350603e-34
8.47548372e-32
1.89471308e-29
4.23559336e-27
9.5195046e-25
2.13371412e-22
4.78940117e-20
1.04040148e-17
2.19869175e-15
4.22325418e-107
1.30323259e-104
4.38354054e-102
1.467011e-99
4.73640452e-97
1.4665847e-94
4.36039408e-92
1.24864637e-89
3.45584638e-87
9.27586676e-85
2.42235163e-82
6.17297851e-80
1.5392479e-77
3.76483826e-75
9.05270647e-73
2.14422934e-70
5.01193483e-68
1.15791191e-65
2.64789364e-63
6.00114791e-61
1.34945768e-58
3.01379305e-56
6.69075127e-54
1.47769953e-51
3.24893312e-49
7.1158332e-47
1.55334211e-44
3.38060356e-42
7.33947853e-40
1.5898359e-37
3.43755108e-35
7.42026521e-33
1.59960479e-30
3.44397195e-28
7.40819649e-26
1.59217595e-23
3.42006095e-21
7.34266934e-19
1.57594264e-16
3.39975671e-14
6.31535962e-18
2.63004242e-17
6.83311817e-17
1.46501051e-16
2.82851955e-16
5.19986914e-16
9.44969609e-16
1.72512757e-15
3.14375458e-15
5.65759049e-15
9.92396061e-15
1.69019098e-14
2.78538638e-14
4.45403301e-14
6.92233639e-14
1.04845017e-13
1.55240957e-13
2.25043854e-13
3.20483732e-13
4.48621162e-13
6.18816498e-13
8.41929792e-13
1.13148344e-12
1.50400235e-12
1.97934086e-12
2.58219192e-12
3.33931496e-12
4.28926382e-12
5.46770069e-12
6.93101976e-12
8.73262537e-12
1.09428931e-11
1.36440142e-11
1.6920756e-11
2.08905199e-11
2.5661032e-11
3.13874039e-11
3.82101099e-11
4.63224455e-11
5.59131883e-11
6.72230184e-11
8.05090464e-11
9.60656712e-11
1.14210793e-10
1.35288247e-10
1.59645327e-10
1.87643207e-10
2.19657249e-10
2.56079591e-10
2.97326822e-10
3.43832557e-10
3.96057143e-10
4.54462531e-10
5.19520694e-10
5.91669905e-10
6.71318062e-10
7.5879476e-10
8.54357877e-10
9.58172531e-10
1.07032851e-09
1.1908525e-09
1.31971563e-09
1.45687474e-09
1.60225231e-09
1.75582667e-09
1.91755455e-09
2.08749421e-09
2.26566236e-09
2.45213348e-09
2.6468351e-09
2.84961963e-09
3.06015266e-09
3.27790715e-09
3.50237808e-09
3.73278708e-09
3.96873061e-09
4.20964222e-09
4.45516558e-09
4.70500659e-09
4.95896688e-09
5.21680393e-09
5.47822824e-09
5.74294355e-09
6.01059671e-09
6.28085804e-09
6.55339871e-09
6.82805002e-09
7.10461148e-09
7.38297603e-09
7.66304783e-09
7.94462431e-09
8.22740632e-09
8.51088719e-09
8.79440299e-09
9.07716468e-09
9.3583234e-09
9.63703469e-09
9.91253737e-09
1.01841881e-08
1.04515104e-08
1.07141307e-08
1.09717326e-08
1.12239911e-08
1.14705297e-08
1.17107406e-08
1.1943861e-08
1.21690412e-08
1.23854696e-08
1.25928026e-08
1.27911973e-08
1.29816738e-08
1.31663408e-08
1.33494414e-08
1.35383386e-08
1.37445229e-08
1.39846866e-08
1.4281997e-08
1.46667198e-08
1.51755808e-08
1.58496041e-08
1.6730784e-08
1.78581568e-08
1.92642259e-08
2.09717132e-08
2.29888188e-08
2.5306579e-08
2.79004791e-08
3.07390453e-08
3.37929722e-08
3.70401175e-08
4.04630364e-08
4.40428096e-08
4.77555661e-08
5.1567474e-08
5.54285908e-08
5.92699364e-08
6.29940583e-08
6.64627033e-08
6.94796406e-08
7.17600623e-08
7.28113823e-08
7.19209136e-08
6.82073438e-08
6.10642811e-08
5.10968875e-08
4.02442847e-08
3.03548313e-08
2.22984981e-08
1.62428606e-08
1.17346188e-08
8.45079163e-09
6.0872908e-09
4.40121003e-09
3.19636347e-09
2.33129269e-09
1.70756207e-09
1.25605282e-09
9.2805416e-10
6.89073936e-10
5.14548444e-10
3.86873244e-10
2.93380755e-10
2.24894014e-10
1.74732598e-10
1.38011897e-10
1.11148657e-10
9.15190615e-11
7.71958846e-11
6.67615876e-11
5.91755615e-11
5.36772085e-11
4.97150701e-11
4.68948593e-11
4.49407227e-11
4.36600412e-11
4.29256849e-11
4.26691139e-11
4.28572838e-11
4.34831211e-11
4.45590069e-11
4.61101193e-11
4.81685523e-11
5.07680289e-11
5.39388998e-11
5.77033908e-11
6.20716427e-11
6.70389277e-11
7.25833258e-11
7.86627345e-11
8.52153971e-11
9.21641031e-11
9.94203707e-11
1.06883424e-10
1.14433337e-10
1.21955065e-10
1.29349596e-10
1.36529832e-10
1.4338921e-10
1.49831313e-10
1.55804438e-10
1.61276364e-10
1.6623374e-10
1.70641078e-10
1.74498164e-10
1.77824997e-10
1.80646668e-10
1.82991578e-10
1.84870629e-10
1.86334758e-10
1.87428743e-10
1.88195574e-10
1.8866112e-10
1.88866119e-10
1.88842221e-10
1.88622559e-10
1.88230579e-10
1.876924e-10
1.87048905e-10
1.8628509e-10
1.85397458e-10
1.84409968e-10
1.83333256e-10
1.82181545e-10
1.80965924e-10
1.79702237e-10
1.78405646e-10
1.7709172e-10
1.7577048e-10
1.74441996e-10
1.73100097e-10
1.71735747e-10
1.70338994e-10
1.68901375e-10
1.67418515e-10
1.65891084e-10
1.64323625e-10
1.627215e-10
1.61090073e-10
1.59457177e-10
1.57829172e-10
1.56211554e-10
1.54614281e-10
1.53046239e-10
1.51514318e-10
1.50023512e-10
1.48577066e-10
1.4717645e-10
1.45821172e-10
1.44508473e-10
1.43232986e-10
1.41986468e-10
1.40757831e-10
1.39533758e-10
1.38300255e-10
1.37044729e-10
1.35753311e-10
1.34454293e-10
1.33139079e-10
1.31822187e-10
1.30522916e-10
1.29259345e-10
1.28046563e-10
1.26895475e-10
1.25812646e-10
1.2480115e-10
1.2386244e-10
1.22999767e-10
1.22224859e-10
1.21572467e-10
1.21133618e-10
1.30278586e-16
4.6594611e-16
1.05350279e-15
2.0420614e-15
3.66680971e-15
6.51831232e-15
1.18791044e-14
2.20986843e-14
4.08009878e-14
7.32896823e-14
1.26472899e-13
2.097076e-13
3.34455837e-13
5.15988632e-13
7.72834904e-13
1.12787436e-12
1.60929066e-12
2.24892371e-12
3.08678196e-12
4.16442352e-12
5.53345405e-12
7.24984851e-12
9.37676657e-12
1.1990414e-11
1.51640164e-11
1.89959805e-11
2.35716069e-11
2.90054803e-11
3.53987758e-11
4.28796839e-11
5.15590661e-11
6.15679299e-11
7.30258424e-11
8.60601637e-11
1.00800419e-10
1.17368504e-10
1.35905953e-10
1.56531881e-10
1.79406734e-10
2.04658876e-10
2.32469834e-10
2.62982234e-10
2.96378629e-10
3.32810205e-10
3.72437075e-10
4.15408162e-10
4.61879141e-10
5.12021043e-10
5.66024954e-10
6.24107853e-10
6.86509049e-10
7.53493243e-10
8.25335693e-10
9.02322114e-10
9.84732007e-10
1.07284231e-09
1.16691197e-09
1.26719103e-09
1.37390926e-09
1.48728337e-09
1.60750512e-09
1.73474632e-09
1.86914995e-09
2.01083886e-09
2.15992752e-09
2.31647995e-09
2.48059518e-09
2.65230176e-09
2.83161572e-09
3.01842297e-09
3.21253889e-09
3.41365017e-09
3.62134568e-09
3.83525877e-09
4.05488815e-09
4.28000651e-09
4.51028326e-09
4.74550819e-09
4.98545279e-09
5.22991399e-09
5.47856221e-09
5.73103519e-09
5.98696705e-09
6.24596762e-09
6.50771358e-09
6.77194781e-09
7.03855985e-09
7.30744217e-09
7.57852343e-09
7.851717e-09
8.12677134e-09
8.40329336e-09
8.6807048e-09
8.95827076e-09
9.23515938e-09
9.51051342e-09
9.78351785e-09
1.00534717e-08
1.03198116e-08
1.05821526e-08
1.08401952e-08
1.10936875e-08
1.13423596e-08
1.15858704e-08
1.18236129e-08
1.20548394e-08
1.2278753e-08
1.24946866e-08
1.2702526e-08
1.29027074e-08
1.30964925e-08
1.32863683e-08
1.34770905e-08
1.36765813e-08
1.38968909e-08
1.4155163e-08
1.44748953e-08
1.48864055e-08
1.54260287e-08
1.61339068e-08
1.70508194e-08
1.82144309e-08
1.9655875e-08
2.13965515e-08
2.34432595e-08
2.57860083e-08
2.84000671e-08
3.12543622e-08
3.43201132e-08
3.75748658e-08
4.10002362e-08
4.45756802e-08
4.82757539e-08
5.20646628e-08
5.58896884e-08
5.96790925e-08
6.33316225e-08
6.67044066e-08
6.95960648e-08
7.17080053e-08
7.25394578e-08
7.13777655e-08
6.73751899e-08
6.00208053e-08
5.00370856e-08
3.93456089e-08
2.96808347e-08
2.18280527e-08
1.5919384e-08
1.15200957e-08
8.30936587e-09
5.9943126e-09
4.34118044e-09
3.1574586e-09
2.30587779e-09
1.69080809e-09
1.24491037e-09
9.20592616e-10
6.84057301e-10
5.11176203e-10
3.84619337e-10
2.91893322e-10
2.23935637e-10
1.74141108e-10
1.37675565e-10
1.10989334e-10
9.14815229e-11
7.72413665e-11
6.68629552e-11
5.93139792e-11
5.38398217e-11
4.98933738e-11
4.70835575e-11
4.51370126e-11
4.38623708e-11
4.31335067e-11
4.28834213e-11
4.30792742e-11
4.3714146e-11
4.48004124e-11
4.63630503e-11
4.8433783e-11
5.10458373e-11
5.42289574e-11
5.80046304e-11
6.23822085e-11
6.73563372e-11
7.29046613e-11
7.89844282e-11
8.55330546e-11
9.24736346e-11
9.97176284e-11
1.07166144e-10
1.14697278e-10
1.22195525e-10
1.29565292e-10
1.3672219e-10
1.43559056e-10
1.49975029e-10
1.55921017e-10
1.61369121e-10
1.66306958e-10
1.70696194e-10
1.74532966e-10
1.77841154e-10
1.80648426e-10
1.82982548e-10
1.84850547e-10
1.86303886e-10
1.87389418e-10
1.88149535e-10
1.88609475e-10
1.88808804e-10
1.88780743e-10
1.88558022e-10
1.88163174e-10
1.87622244e-10
1.86977384e-10
1.86212223e-10
1.85323962e-10
1.84336856e-10
1.83260543e-10
1.82109911e-10
1.8089578e-10
1.79633385e-10
1.78337858e-10
1.77024863e-10
1.75704399e-10
1.74376347e-10
1.73034505e-10
1.71670058e-10
1.70273334e-10
1.68836039e-10
1.6735387e-10
1.65827542e-10
1.64261597e-10
1.62661262e-10
1.61030996e-10
1.59400861e-10
1.57775376e-10
1.56160058e-10
1.54564947e-10
1.52998918e-10
1.51468811e-10
1.49979585e-10
1.48534474e-10
1.47134949e-10
1.45780529e-10
1.44468478e-10
1.4319346e-10
1.41947278e-10
1.40718904e-10
1.39495098e-10
1.38261957e-10
1.37006985e-10
1.35715496e-10
1.34418839e-10
1.33104789e-10
1.31789425e-10
1.30491838e-10
1.29229974e-10
1.28018829e-10
1.26869251e-10
1.25787764e-10
1.24777427e-10
1.23839694e-10
1.22977824e-10
1.22203557e-10
1.21551642e-10
1.21113069e-10
4.90026793e-15
1.52647648e-14
3.08299726e-14
5.48337074e-14
9.15686627e-14
1.60465537e-13
3.00098065e-13
5.66528164e-13
1.02827624e-12
1.76373333e-12
2.85454461e-12
4.39290816e-12
6.47910347e-12
9.23149888e-12
1.27757009e-11
1.72474002e-11
2.27801301e-11
2.9495661e-11
3.75104516e-11
4.69249678e-11
5.78456208e-11
7.03751151e-11
8.4620738e-11
1.0068941e-10
1.18668184e-10
1.38650041e-10
1.60662908e-10
1.84747112e-10
2.10906062e-10
2.39152819e-10
2.69486805e-10
3.0192935e-10
3.3649559e-10
3.73216246e-10
4.12101241e-10
4.53166978e-10
4.96427973e-10
5.41916113e-10
5.89709843e-10
6.39890622e-10
6.92599285e-10
7.47936038e-10
8.06035197e-10
8.66949835e-10
9.30718405e-10
9.97336482e-10
1.06680585e-09
1.13916313e-09
1.21449417e-09
1.29293395e-09
1.37463671e-09
1.45976339e-09
1.54844255e-09
1.64076734e-09
1.73680281e-09
1.83662116e-09
1.94033434e-09
2.04812723e-09
2.16025742e-09
2.2770361e-09
2.39879041e-09
2.52583812e-09
2.65844433e-09
2.79685559e-09
2.94121318e-09
3.09160024e-09
3.24808038e-09
3.4105957e-09
3.57903323e-09
3.75320179e-09
3.93290389e-09
4.11795245e-09
4.3082327e-09
4.5037516e-09
4.70453486e-09
4.91073336e-09
5.12239794e-09
5.33950081e-09
5.561845e-09
5.78910685e-09
6.02080464e-09
6.25642775e-09
6.49551433e-09
6.73770716e-09
6.98280176e-09
7.23075667e-09
7.48162917e-09
7.73550535e-09
7.99236711e-09
8.25205938e-09
8.51422138e-09
8.77827849e-09
9.04347533e-09
9.30894769e-09
9.57380998e-09
9.8372302e-09
1.00984978e-08
1.03570738e-08
1.061259e-08
1.0864864e-08
1.11137573e-08
1.13591584e-08
1.16009141e-08
1.18387529e-08
1.20720577e-08
1.23001093e-08
1.25222674e-08
1.27382382e-08
1.29484339e-08
1.31539191e-08
1.33564371e-08
1.3559383e-08
1.37685796e-08
1.39931425e-08
1.42462703e-08
1.4545934e-08
1.49162192e-08
1.53874066e-08
1.59948403e-08
1.67766678e-08
1.77710758e-08
1.90128296e-08
2.05301409e-08
2.23415706e-08
2.44508888e-08
2.6846024e-08
2.95019354e-08
3.23884295e-08
3.54775016e-08
3.87460004e-08
4.2173217e-08
4.57349354e-08
4.94023851e-08
5.31353887e-08
5.6874868e-08
6.05430878e-08
6.40303278e-08
6.71835414e-08
6.97908075e-08
7.15190475e-08
7.18564834e-08
7.00998561e-08
6.54828323e-08
5.77194781e-08
4.77541157e-08
3.74396901e-08
2.82598558e-08
2.08370083e-08
1.52334936e-08
1.10646069e-08
8.00793684e-09
5.79547601e-09
4.21286247e-09
3.07418269e-09
2.25137481e-09
1.65479507e-09
1.22091013e-09
9.04493395e-10
6.73219508e-10
5.03884342e-10
3.79743936e-10
2.88676696e-10
2.21865296e-10
1.72866303e-10
1.36954075e-10
1.10651956e-10
9.14084464e-11
7.7348389e-11
6.70911398e-11
5.96224299e-11
5.42006514e-11
5.0288157e-11
4.75008464e-11
4.55708233e-11
4.43093592e-11
4.35924329e-11
4.33566676e-11
4.35694069e-11
4.42241082e-11
4.53331236e-11
4.69209767e-11
4.90185638e-11
5.16579971e-11
5.48676832e-11
5.86675588e-11
6.30653053e-11
6.80540257e-11
7.36101729e-11
7.96899567e-11
8.62297282e-11
9.31522498e-11
1.00369175e-10
1.07783178e-10
1.15272825e-10
1.22722812e-10
1.30040076e-10
1.37142044e-10
1.4392469e-10
1.50286191e-10
1.56179118e-10
1.61575888e-10
1.66464677e-10
1.70810353e-10
1.74607032e-10
1.77879187e-10
1.80654364e-10
1.82960144e-10
1.84803079e-10
1.86235491e-10
1.87303965e-10
1.88048637e-10
1.88495163e-10
1.88682553e-10
1.8864552e-10
1.88415803e-10
1.88014838e-10
1.87468292e-10
1.86816823e-10
1.86048245e-10
1.85162026e-10
1.84175975e-10
1.83101089e-10
1.81952551e-10
1.80741111e-10
1.79481469e-10
1.78188649e-10
1.76877935e-10
1.75559084e-10
1.74231934e-10
1.72890367e-10
1.71525907e-10
1.70129337e-10
1.68692757e-10
1.67212106e-10
1.65688214e-10
1.64125598e-10
1.62529154e-10
1.60901296e-10
1.59277343e-10
1.57657338e-10
1.56047015e-10
1.54456621e-10
1.52894988e-10
1.51368845e-10
1.49883079e-10
1.48440891e-10
1.47043758e-10
1.45691225e-10
1.44380602e-10
1.43106624e-10
1.41861193e-10
1.4063341e-10
1.39410203e-10
1.38177872e-10
1.36924178e-10
1.3563628e-10
1.34341221e-10
1.33029495e-10
1.31717478e-10
1.30423581e-10
1.29165451e-10
1.27957891e-10
1.26811613e-10
1.25733065e-10
1.2472527e-10
1.23789679e-10
1.22929571e-10
1.2215671e-10
1.21505851e-10
1.21067914e-10
1.96909491e-13
4.83293721e-13
8.57098006e-13
1.33075619e-12
1.9805111e-12
3.55977284e-12
6.89841711e-12
1.26052687e-11
2.09994068e-11
3.2162346e-11
4.60153675e-11
6.26212701e-11
8.21680143e-11
1.04915324e-10
1.30996119e-10
1.60415465e-10
1.92923414e-10
2.28133077e-10
2.65667749e-10
3.05278561e-10
3.4692865e-10
3.90654095e-10
4.36538119e-10
4.84503085e-10
5.34390019e-10
5.85835821e-10
6.38441925e-10
6.91917157e-10
7.4618466e-10
8.01435972e-10
8.58003888e-10
9.16233627e-10
9.76356625e-10
1.03842301e-09
1.10230504e-09
1.16781624e-09
1.23485548e-09
1.30354097e-09
1.37418439e-09
1.44717287e-09
1.52284915e-09
1.60132823e-09
1.6825028e-09
1.76599015e-09
1.85134287e-09
1.93819081e-09
2.02641984e-09
2.11619984e-09
2.20788717e-09
2.30185007e-09
2.39831626e-09
2.49728831e-09
2.59854208e-09
2.70174616e-09
2.80661237e-09
2.91306469e-09
3.02131109e-09
3.13181964e-09
3.2451965e-09
3.362027e-09
3.48277964e-09
3.60775381e-09
3.73711351e-09
3.87090672e-09
4.00907879e-09
4.151486e-09
4.29792369e-09
4.44809988e-09
4.60173379e-09
4.75862023e-09
4.9187539e-09
5.08238068e-09
5.2500151e-09
5.42234092e-09
5.60003832e-09
5.78364367e-09
5.97340451e-09
6.16918512e-09
6.37051221e-09
6.57668842e-09
6.78699173e-09
7.00077363e-09
7.21762395e-09
7.43746288e-09
7.66045541e-09
7.88696902e-09
8.11735097e-09
8.3518227e-09
8.59034477e-09
8.83256831e-09
9.07785571e-09
9.32533895e-09
9.57402521e-09
9.82293194e-09
1.00711931e-08
1.03181196e-08
1.05632487e-08
1.08063507e-08
1.10473842e-08
1.12864586e-08
1.15236777e-08
1.175913e-08
1.19928198e-08
1.22245595e-08
1.24536736e-08
1.26794717e-08
1.29016972e-08
1.31207515e-08
1.3337925e-08
1.35551431e-08
1.37750032e-08
1.40021451e-08
1.42439983e-08
1.45113769e-08
1.48189443e-08
1.51854544e-08
1.56355655e-08
1.61991409e-08
1.69097233e-08
1.78023345e-08
1.89114567e-08
2.02677048e-08
2.18950198e-08
2.38078504e-08
2.60054753e-08
2.84731525e-08
3.118574e-08
3.41142552e-08
3.72311057e-08
4.05116772e-08
4.39314533e-08
4.74601694e-08
5.10645015e-08
5.46973553e-08
5.82891764e-08
6.17535921e-08
6.49675381e-08
6.77625098e-08
6.99015098e-08
7.10177691e-08
7.05865816e-08
6.7932783e-08
6.24606415e-08
5.42356477e-08
4.44402184e-08
3.47333831e-08
2.62592196e-08
1.9443022e-08
1.42542891e-08
1.04143444e-08
7.574496e-09
5.5078739e-09
4.02763955e-09
2.9537629e-09
2.17221929e-09
1.60226903e-09
1.18577752e-09
8.80856454e-10
6.57272509e-10
4.93139031e-10
3.72555493e-10
2.83936762e-10
2.18820778e-10
1.70999939e-10
1.35907208e-10
1.10174712e-10
9.13231664e-11
7.75299628e-11
6.74520348e-11
6.01019515e-11
5.47574772e-11
5.08950547e-11
4.81409651e-11
4.62355774e-11
4.49924001e-11
4.42946336e-11
4.40807695e-11
4.43191086e-11
4.50038029e-11
4.61471311e-11
4.77728941e-11
4.99107039e-11
5.25909493e-11
5.58400091e-11
5.96755529e-11
6.41027885e-11
6.91123441e-11
7.46787113e-11
8.07570184e-11
8.72826181e-11
9.41763932e-11
1.01351315e-10
1.08710643e-10
1.16136914e-10
1.23517239e-10
1.30756061e-10
1.37771003e-10
1.44467699e-10
1.50750049e-10
1.56569828e-10
1.61888973e-10
1.66697808e-10
1.70974365e-10
1.7471521e-10
1.7793776e-10
1.8066362e-10
1.8292224e-10
1.84726959e-10
1.86130516e-10
1.87174448e-10
1.87895162e-10
1.8832039e-10
1.8849083e-10
1.88440148e-10
1.88199336e-10
1.8778937e-10
1.87235252e-10
1.86572221e-10
1.8579884e-10
1.84915429e-10
1.83931389e-10
1.8285931e-10
1.81713885e-10
1.80505757e-10
1.79250159e-10
1.77961846e-10
1.76654963e-10
1.75338638e-10
1.74012879e-10
1.72671971e-10
1.71307795e-10
1.69911628e-10
1.68476169e-10
1.66997829e-10
1.65477646e-10
1.63920069e-10
1.62329515e-10
1.60704827e-10
1.59090725e-10
1.57478847e-10
1.5587596e-10
1.54292634e-10
1.52737608e-10
1.5121743e-10
1.49736872e-10
1.48299091e-10
1.46905569e-10
1.45555891e-10
1.44247438e-10
1.42975051e-10
1.41730778e-10
1.40503916e-10
1.39281644e-10
1.38050567e-10
1.36798975e-10
1.35517851e-10
1.34223284e-10
1.32915445e-10
1.31608517e-10
1.30320183e-10
1.29067681e-10
1.27865519e-10
1.26724214e-10
1.25650096e-10
1.24646137e-10
1.2371378e-10
1.22856331e-10
1.22085595e-10
1.21436339e-10
1.20999389e-10
7.64663017e-12
1.16923734e-11
1.5189979e-11
1.86236532e-11
2.45044703e-11
5.50180286e-11
1.10313823e-10
1.8157503e-10
2.5965595e-10
3.37707652e-10
4.12432762e-10
4.87753368e-10
5.67713487e-10
6.53444594e-10
7.43064488e-10
8.33142661e-10
9.2008023e-10
1.00130503e-09
1.07716229e-09
1.15056563e-09
1.22475679e-09
1.30149554e-09
1.38064259e-09
1.46048806e-09
1.53867281e-09
1.61288513e-09
1.68236069e-09
1.74837226e-09
1.81394878e-09
1.88222878e-09
1.95516163e-09
2.03295974e-09
2.11434608e-09
2.19722481e-09
2.2796014e-09
2.36062568e-09
2.44108958e-09
2.52302425e-09
2.60855475e-09
2.69891725e-09
2.79397085e-09
2.89229102e-09
2.99175063e-09
3.09022248e-09
3.1865244e-09
3.2808534e-09
3.37462113e-09
3.46970176e-09
3.5675587e-09
3.6686802e-09
3.77248143e-09
3.87762656e-09
3.98256392e-09
4.08616762e-09
4.18817277e-09
4.28933058e-09
4.39109676e-09
4.49510947e-09
4.60265455e-09
4.71435373e-09
4.83021983e-09
4.94988768e-09
5.07291814e-09
5.19876737e-09
5.32696136e-09
5.4569094e-09
5.58797921e-09
5.71962655e-09
5.85158118e-09
5.9840068e-09
6.11767818e-09
6.25391066e-09
6.39434497e-09
6.54055425e-09
6.69368123e-09
6.85418163e-09
7.02182321e-09
7.19568996e-09
7.37452903e-09
7.5570872e-09
7.74242487e-09
7.93009247e-09
8.12020953e-09
8.31341163e-09
8.51057633e-09
8.71262592e-09
8.92014097e-09
9.13326458e-09
9.35164596e-09
9.5744748e-09
9.80063152e-09
1.00288634e-08
1.02579747e-08
1.04869994e-08
1.07152902e-08
1.09425289e-08
1.11687148e-08
1.13941168e-08
1.1619124e-08
1.18442066e-08
1.20697798e-08
1.22961531e-08
1.25235022e-08
1.27517134e-08
1.29798918e-08
1.32074516e-08
1.34349478e-08
1.36639123e-08
1.38968755e-08
1.41369919e-08
1.43876081e-08
1.46551074e-08
1.49489926e-08
1.52820312e-08
1.56702542e-08
1.61325055e-08
1.66938426e-08
1.73830339e-08
1.82308097e-08
1.92679227e-08
2.05243796e-08
2.20255179e-08
2.37897343e-08
2.58264829e-08
2.81291395e-08
3.0680313e-08
3.34552014e-08
3.64260124e-08
3.95645349e-08
4.28432555e-08
4.62323289e-08
4.96923592e-08
5.318521e-08
5.66538058e-08
6.00127632e-08
6.31656039e-08
6.59702052e-08
6.82340618e-08
6.96869109e-08
6.99331312e-08
6.8444509e-08
6.46393929e-08
5.82181018e-08
4.9680711e-08
4.03225477e-08
3.14500248e-08
2.3854309e-08
1.77676804e-08
1.31001268e-08
9.6158664e-09
7.03563515e-09
5.14762373e-09
3.79750108e-09
2.80330995e-09
2.07269909e-09
1.53582654e-09
1.1411077e-09
8.50681663e-10
6.36855681e-10
4.79357205e-10
3.63329445e-10
2.77859857e-10
2.14930166e-10
1.68631122e-10
1.34597702e-10
1.09601484e-10
9.12569334e-11
7.78084642e-11
6.79617999e-11
6.07643896e-11
5.55192047e-11
5.17210243e-11
4.90096108e-11
4.71363765e-11
4.59162213e-11
4.52446781e-11
4.5059965e-11
4.53324212e-11
4.60569837e-11
4.72457391e-11
4.89214592e-11
5.11119959e-11
5.38453795e-11
5.71452569e-11
6.10263932e-11
6.54908606e-11
7.05258829e-11
7.61030785e-11
8.2176576e-11
8.86813166e-11
9.55365056e-11
1.02652528e-10
1.09935508e-10
1.17275576e-10
1.24565814e-10
1.31701856e-10
1.38597777e-10
1.45176321e-10
1.51355746e-10
1.57084133e-10
1.62301015e-10
1.66999407e-10
1.71181975e-10
1.74852517e-10
1.78013037e-10
1.80672963e-10
1.82866114e-10
1.84620816e-10
1.8598833e-10
1.8700002e-10
1.87688506e-10
1.88085232e-10
1.8823491e-10
1.88165892e-10
1.8790948e-10
1.87487788e-10
1.86924717e-10
1.86251911e-10
1.854704e-10
1.84585964e-10
1.83604496e-10
1.82536638e-10
1.81395272e-10
1.80190726e-10
1.78940329e-10
1.77658326e-10
1.76356847e-10
1.75043944e-10
1.7372012e-10
1.72380404e-10
1.71017e-10
1.69621655e-10
1.68187847e-10
1.66712711e-10
1.65197574e-10
1.63646763e-10
1.62064158e-10
1.60442654e-10
1.58842907e-10
1.57241436e-10
1.5564823e-10
1.54074205e-10
1.52527902e-10
1.51015608e-10
1.4954194e-10
1.48109995e-10
1.46721265e-10
1.45375388e-10
1.44069839e-10
1.42799595e-10
1.41556899e-10
1.40331308e-10
1.39110326e-10
1.37880955e-10
1.36632081e-10
1.35356838e-10
1.34065709e-10
1.3276342e-10
1.31463294e-10
1.30182333e-10
1.28937279e-10
1.27742263e-10
1.26607539e-10
1.2553929e-10
1.24540417e-10
1.2361235e-10
1.22758429e-10
1.21990514e-10
1.21343393e-10
1.20907768e-10
1.81367431e-10
1.36980685e-10
1.15184751e-10
1.09409492e-10
1.55441149e-10
6.25963763e-10
1.06697867e-09
1.35440401e-09
1.50881001e-09
1.57340503e-09
1.59947499e-09
1.67826824e-09
1.81043674e-09
1.95969435e-09
2.09320263e-09
2.19315264e-09
2.25551882e-09
2.28828939e-09
2.3174885e-09
2.36731171e-09
2.44257754e-09
2.53326399e-09
2.62472203e-09
2.70453724e-09
2.76570924e-09
2.80770098e-09
2.83882449e-09
2.87410697e-09
2.92654624e-09
3.00004391e-09
3.08992896e-09
3.18702277e-09
3.28189969e-09
3.36788261e-09
3.4431799e-09
3.51213865e-09
3.58321126e-09
3.66411108e-09
3.75791806e-09
3.8624631e-09
3.97205795e-09
4.07999643e-09
4.1808871e-09
4.27226563e-09
4.35589909e-09
4.4368036e-09
4.52072318e-09
4.61147155e-09
4.70963715e-09
4.81289124e-09
4.91730702e-09
5.01895126e-09
5.11520653e-09
5.20568066e-09
5.29227281e-09
5.37845787e-09
5.4678376e-09
5.56290221e-09
5.66441805e-09
5.77161164e-09
5.88295886e-09
5.99707143e-09
6.11298389e-09
6.22982556e-09
6.34682924e-09
6.46309996e-09
6.57778925e-09
6.69037335e-09
6.80104588e-09
6.91088527e-09
7.02195601e-09
7.13687071e-09
7.2582196e-09
7.38788448e-09
7.52661755e-09
7.67395292e-09
7.82850814e-09
7.98827642e-09
8.15128833e-09
8.31609173e-09
8.48203228e-09
8.64935116e-09
8.81906787e-09
8.99268089e-09
9.17169462e-09
9.35728523e-09
9.54990847e-09
9.74930854e-09
9.95459242e-09
1.01644113e-08
1.03772304e-08
1.05915831e-08
1.08062972e-08
1.10206332e-08
1.12343288e-08
1.14475391e-08
1.1660731e-08
1.18746108e-08
1.20899075e-08
1.23073322e-08
1.25275077e-08
1.27508779e-08
1.29777285e-08
1.32079684e-08
1.34402725e-08
1.36743559e-08
1.39117331e-08
1.41551512e-08
1.44081923e-08
1.46748271e-08
1.49584756e-08
1.52671974e-08
1.56120562e-08
1.60070007e-08
1.64685231e-08
1.70144513e-08
1.76702634e-08
1.8463383e-08
1.94219346e-08
2.0573074e-08
2.19436588e-08
2.35546832e-08
2.54200804e-08
2.75460317e-08
2.99208039e-08
3.25258255e-08
3.53368007e-08
3.83263715e-08
4.1464649e-08
4.47210206e-08
4.80609338e-08
5.14361937e-08
5.48067434e-08
5.810596e-08
6.12330879e-08
6.40858751e-08
6.65070254e-08
6.82749596e-08
6.91007514e-08
6.85812227e-08
6.62216567e-08
6.15790419e-08
5.46397143e-08
4.61378597e-08
3.72742417e-08
2.90809444e-08
2.21291035e-08
1.65597902e-08
1.22688807e-08
9.04548545e-09
6.64838268e-09
4.88647785e-09
3.6256682e-09
2.68949295e-09
1.99672654e-09
1.48473475e-09
1.10654394e-09
8.27222658e-10
6.20929407e-10
4.68585694e-10
3.56115303e-10
2.73116584e-10
2.11907671e-10
1.66808824e-10
1.33611648e-10
1.09196351e-10
9.12519034e-11
7.80750974e-11
6.84102674e-11
6.13325653e-11
5.61650235e-11
5.24170125e-11
4.9738971e-11
4.78916265e-11
4.6689912e-11
4.60394803e-11
4.58786384e-11
4.61790569e-11
4.6936183e-11
4.81618447e-11
4.98778986e-11
5.21107146e-11
5.48863611e-11
5.82261956e-11
6.21425768e-11
6.66351636e-11
7.16887142e-11
7.7272542e-11
8.33393726e-11
8.98238193e-11
9.66448331e-11
1.0371219e-10
1.10932818e-10
1.18200526e-10
1.25411711e-10
1.32463315e-10
1.39267384e-10
1.45753548e-10
1.518444e-10
1.57489777e-10
1.62625169e-10
1.67242209e-10
1.71352516e-10
1.74959929e-10
1.78064039e-10
1.80672484e-10
1.82818266e-10
1.84533721e-10
1.8586904e-10
1.8685268e-10
1.87516128e-10
1.878916e-10
1.88024177e-10
1.87940571e-10
1.87671806e-10
1.87240423e-10
1.86669928e-10
1.85990328e-10
1.85203497e-10
1.84317345e-10
1.83336851e-10
1.82271579e-10
1.81133351e-10
1.79932351e-10
1.78686087e-10
1.77408623e-10
1.7611117e-10
1.74801118e-10
1.73479054e-10
1.72140363e-10
1.70777655e-10
1.69383199e-10
1.67951084e-10
1.66478874e-10
1.64968064e-10
1.63422913e-10
1.61847078e-10
1.60226898e-10
1.58640646e-10
1.57047069e-10
1.55461593e-10
1.53895099e-10
1.5235588e-10
1.5084999e-10
1.49381922e-10
1.47954729e-10
1.46569908e-10
1.45227143e-10
1.43923981e-10
1.42655515e-10
1.41414146e-10
1.40189637e-10
1.38969757e-10
1.37741821e-10
1.36495141e-10
1.35223761e-10
1.33936229e-10
1.32638669e-10
1.31344126e-10
1.3006917e-10
1.28830172e-10
1.27640964e-10
1.26511596e-10
1.2544812e-10
1.24453386e-10
1.23528812e-10
1.22677767e-10
1.21912154e-10
1.21266776e-10
1.20832235e-10
1.83822456e-15
2.92374549e-15
3.59064067e-15
4.02647182e-15
4.31190154e-15
4.4881801e-15
4.58278441e-15
4.61784151e-15
4.60956558e-15
4.57216527e-15
4.51601493e-15
4.44781935e-15
4.37214635e-15
4.2927152e-15
4.21228386e-15
4.13258437e-15
4.05455921e-15
3.97899712e-15
3.9065849e-15
3.83767778e-15
3.77230319e-15
3.71053285e-15
3.65246695e-15
3.59807084e-15
3.547149e-15
3.49956673e-15
3.45523648e-15
3.41402492e-15
3.37581763e-15
3.34044524e-15
3.30774196e-15
3.27757295e-15
3.24992443e-15
3.22495601e-15
3.21290459e-15
3.71335114e-15
2.82242575e-14
1.10697398e-12
4.19645793e-11
8.94751201e-10
1.32914235e-15
2.32531801e-15
3.02599343e-15
3.53208413e-15
3.90223224e-15
4.1718826e-15
4.36202403e-15
4.48847513e-15
4.56402806e-15
4.60016692e-15
4.6059892e-15
4.58829909e-15
4.55266758e-15
4.50386786e-15
4.44571047e-15
4.38111587e-15
4.31238998e-15
4.24140334e-15
4.16961415e-15
4.09812159e-15
4.02775382e-15
3.95912206e-15
3.8926943e-15
3.82882124e-15
3.76772152e-15
3.70949482e-15
3.65423696e-15
3.60199723e-15
3.55277732e-15
3.5065517e-15
3.46326829e-15
3.42282805e-15
3.38524679e-15
3.35058615e-15
3.32097923e-15
3.39494658e-15
8.00363751e-15
1.98468401e-13
6.74521607e-12
1.48370686e-10
9.56612108e-16
1.81308159e-15
2.49115499e-15
3.0200941e-15
3.43288812e-15
3.75628317e-15
4.00865148e-15
4.20177424e-15
4.34462761e-15
4.44549294e-15
4.51164581e-15
4.54899702e-15
4.56252095e-15
4.55671277e-15
4.53540186e-15
4.50169106e-15
4.45820711e-15
4.40730589e-15
4.35089683e-15
4.29049742e-15
4.22746766e-15
4.16300705e-15
4.09799206e-15
4.0331207e-15
3.96904535e-15
3.90630623e-15
3.84530747e-15
3.78633084e-15
3.72955631e-15
3.6751489e-15
3.62329338e-15
3.57409093e-15
3.52759575e-15
3.48386386e-15
3.44328791e-15
3.41945323e-15
3.98078979e-15
2.63656542e-14
7.15811957e-13
1.50147272e-11
8.55040812e-16
1.61803467e-15
2.2587475e-15
2.78120033e-15
3.20206546e-15
3.53923494e-15
3.8082692e-15
4.02110392e-15
4.18688269e-15
4.31279707e-15
4.40485042e-15
4.46809232e-15
4.50673782e-15
4.52450805e-15
4.52474139e-15
4.51034091e-15
4.48381447e-15
4.44742495e-15
4.40314939e-15
4.35267501e-15
4.29749522e-15
4.23894132e-15
4.17811261e-15
4.11594538e-15
4.05323918e-15
3.99071243e-15
3.92895173e-15