/*--------------------------------*- C++ -*----------------------------------*\
  =========                 |
  \\      /  F ield         | OpenFOAM: The Open Source CFD Toolbox
   \\    /   O peration     | Website:  https://openfoam.org
    \\  /    A nd           | Version:  6
     \\/     M anipulation  |
\*---------------------------------------------------------------------------*/
FoamFile
{
    version     2.0;
    format      ascii;
    class       volScalarField;
    location    "25000";
    object      k;
}
// * * * * * * * * * * * * * * * * * * * * * * * * * * * * * * * * * * * * * //

dimensions      [0 2 -2 0 0 0 0];

internalField   nonuniform List<scalar> 
44870
(
7.61783912
7.39144678
7.17057267
6.96819758
6.76841133
6.58503417
6.40192444
6.2337793
6.06412101
5.90834113
5.74958958
5.60390856
5.45414575
5.31689421
5.17481226
5.04484406
4.90968374
4.78620013
4.65757737
4.54008472
4.41776809
4.30607026
4.18974491
4.08384093
3.9732415
3.87318956
3.76825041
3.67403023
3.57474738
3.4862058
3.39253387
3.30948499
3.2213529
3.14358142
3.06093231
2.98822163
2.91103068
2.84315322
2.77150119
2.70851164
7.61750545
7.39240258
7.17076295
6.96866406
6.76630155
6.58187494
6.39434227
6.22380311
6.04783258
5.88849727
5.72184382
5.57185626
5.41313291
5.27133484
5.1197799
4.98558217
4.84083214
4.71393896
4.57598074
4.45625205
4.32524458
4.21262029
4.08874171
3.98323261
3.86659814
3.7681953
3.65886612
3.5674813
3.46540555
3.38089262
3.28607195
3.20835571
3.12066056
3.04978355
2.9689378
2.90516942
2.83072688
2.77465398
2.70662431
2.66045654
7.6181376
7.39591401
7.17416956
6.97369761
6.7691566
6.58531067
6.39310059
6.22155238
6.03828198
5.87684218
5.70035542
5.54810909
5.37784785
5.23466155
5.07128367
4.93749725
4.78160446
4.65857463
4.51080412
4.3999931
4.26097354
4.16324133
4.0339962
3.94986998
3.83148226
3.76110838
3.65479874
3.59796418
3.5052842
3.46142846
3.38408035
3.35243284
3.29235387
3.27194801
3.23130863
3.22101945
3.20254791
3.20505186
3.21378452
3.28319774
7.62427627
7.440034
7.28162253
7.1602294
7.05036633
6.96457815
6.88254694
6.81845055
6.75457104
6.70493718
6.65423971
6.61556562
6.57652172
6.54754274
6.52031446
6.50144694
6.48708412
6.47958117
6.48103461
6.48704005
6.49929551
6.52629786
6.55024991
6.60056637
6.63732559
6.71313419
6.76379297
6.86825326
6.93357773
7.06827918
7.14933926
7.31600809
7.41337708
7.61263341
7.72707955
7.95982415
8.09373474
8.36251959
8.55039693
9.19767534
8.32784075
9.57926113
10.8187551
12.0801452
13.2997481
14.5110936
15.6510513
16.7552741
17.7658902
18.7230872
19.5741922
20.3647998
21.0465238
21.6695617
22.1884216
22.6562539
23.0294534
23.3619453
23.6120057
23.8315623
23.9824176
24.1108219
24.1850916
24.241514
24.2595812
24.2549259
24.2338923
24.2038136
24.1375887
24.0913706
23.9987563
23.9350253
23.8310962
23.7552012
23.6484959
23.5635998
23.4619879
23.3658541
23.2820215
22.5687978
2.64666795
2.58411868
2.52721024
2.47416653
2.42291388
2.37386556
2.32416566
2.27717081
2.22867339
2.18423367
2.13829228
2.09694448
2.05524549
2.01713755
1.98120668
1.94690452
1.9171757
1.88781498
1.86418498
1.84172675
1.82448098
1.80997375
1.80034001
1.79468482
1.79573661
1.8002858
1.80956734
1.83003623
1.85026116
1.88563349
1.92646482
1.97733247
2.04238699
2.11430206
2.20569167
2.30486716
2.42590404
2.55858457
2.71280403
2.88366262
3.07595214
3.29001985
3.5295971
3.79431512
4.08841521
4.41146893
4.7632844
5.14368956
5.55202828
5.98909881
6.45454536
6.9503188
7.47625497
8.03481245
8.62569859
9.25066757
9.90863959
10.5992721
11.3204716
12.0697424
12.8448895
13.6415601
14.4580161
15.2877385
16.1303743
16.9788191
17.835726
18.6954845
19.5640389
20.437733
21.3199663
22.2096488
23.0995219
23.9957737
24.8758523
25.7554487
26.6165653
27.4589666
28.2792634
29.0760742
29.8485261
30.5950195
31.3158197
32.0104672
32.6796305
33.3219514
33.9383604
34.5280985
35.0901382
35.6248541
36.1312761
36.6097067
37.059393
37.4798022
37.8703658
38.2312399
38.5617221
38.8628425
39.1343065
39.3789454
39.599038
39.7958552
39.9690558
40.1216327
40.2505158
40.3576595
40.4456977
40.5080952
40.5507011
40.5687575
40.5675514
40.5494069
40.5065591
40.4435284
40.3630765
40.2660415
40.1537352
40.0277719
39.8901536
39.7435387
39.5915385
39.439437
39.2938049
39.1635636
39.0575522
38.9826049
38.9408886
38.9366828
38.9534548
38.9908193
39.0421719
39.0974634
39.1489537
39.1917144
39.2212675
39.2336291
39.2300344
39.2094537
39.1662338
39.1054704
39.0283906
38.9356802
38.8266521
38.6974012
38.5417955
38.3555389
38.138215
37.892
37.6198925
37.3248941
37.0098462
36.6773558
36.3294744
35.9676806
35.5933828
35.2082292
34.8137315
34.410351
33.9986058
33.5790938
33.1523471
32.7188435
32.2790275
31.8333256
31.3821629
30.9259697
30.465192
30.0002958
29.531768
29.0601174
28.5858707
28.109601
27.6319858
27.1544303
26.6763332
26.1972515
25.7189717
25.2421962
24.7674462
24.2952043
23.8259006
23.3600065
22.8981073
22.4407093
21.9881183
21.5407605
21.0993556
20.6656937
20.239339
19.8220754
19.4140393
19.0180742
18.6411221
18.2782457
17.9554297
17.6371054
17.3758933
17.1498556
16.9235808
16.8162655
16.6193107
16.6049155
16.571205
16.4445611
16.458448
16.2711339
16.2628776
16.1331216
15.9390812
15.8176232
15.4900485
15.3843156
15.1231795
14.9049182
14.6776383
14.3508741
14.1456748
13.8426707
13.573575
13.3033651
13.01058
12.7083783
12.3601056
11.9660002
11.5145928
11.0488399
10.5789291
10.1072798
9.65379962
9.23539374
8.86106159
8.53128114
8.24262456
7.9896731
7.7667567
7.56946834
7.39721533
7.25840755
7.10487622
6.95937213
6.82196224
6.68836009
6.55595559
6.42383394
6.29183163
6.15999572
6.02840777
5.89717695
5.766488
5.63667586
5.50832453
5.38238531
5.26030011
5.14415213
5.03709518
4.94810297
4.84934975
4.76259737
4.68307175
4.60776235
4.53428379
4.4606787
4.38548974
4.30775625
4.22702111
4.14326139
4.05710503
3.97031003
3.88803936
3.82500832
2.60813124
2.5606204
2.5138302
2.47140117
2.42809975
2.39137265
2.35299875
2.32310112
2.29130205
2.269621
2.24650059
2.2345824
2.22218482
2.22187959
2.22522093
2.23387251
2.25284828
2.27557073
2.31306023
2.35414318
2.4081573
2.47094623
2.54237861
2.62919499
2.72095177
2.83230089
2.94778807
3.0841605
3.22701148
3.39053708
3.56476467
3.75681696
3.96355634
4.18389221
4.42182563
4.67110549
4.93910925
5.2164716
5.51242782
5.81846879
6.14285901
6.48010355
6.83617392
7.20641906
7.59363993
7.99611475
8.41296137
8.84446123
9.29052459
9.75256917
10.2308728
10.7272005
11.2415895
11.7758661
12.330109
12.9061242
13.5041088
14.1251164
14.768868
15.4348247
16.1219559
16.8276338
17.5504692
18.2853883
19.0322165
19.7847105
20.5449458
21.3082751
22.079522
22.8555793
23.6395383
24.4303667
25.2223316
26.0207686
26.8065161
27.5932017
28.3650152
29.1217489
29.8601863
30.5790772
31.2770402
31.9525133
32.6054567
33.2353727
33.842365
34.4253234
34.9847608
35.5200742
36.030141
36.5154245
36.9748813
37.4085336
37.815744
38.195928
38.548525
38.8735251
39.1700819
39.4391951
39.6804047
39.8968633
40.0903636
40.2619272
40.4112629
40.5413141
40.6485568
40.7358407
40.8049045
40.8489952
40.8747518
40.8768422
40.8625094
40.8278459
40.7715222
40.696654
40.6047372
40.4969868
40.3747742
40.2397467
40.093949
39.9400844
39.7818059
39.6243957
39.4743319
39.3402956
39.2307377
39.1520237
39.1060714
39.0958354
39.1081077
39.1383744
39.1826174
39.2305219
39.2744673
39.3097773
39.3320016
39.3374494
39.3276033
39.2995491
39.2504267
39.1839699
39.1012474
39.0029374
38.8881977
38.753084
38.5917033
38.4000871
38.1779648
37.9274833
37.6515662
37.3531419
37.0349874
36.6996609
36.3491673
35.9849475
35.608398
35.2211722
34.8247737
34.4195951
34.0061698
33.5850975
33.1569059
32.7220682
32.2810251
31.8341994
31.3820125
30.924891
30.463277
29.9976326
29.5284403
29.0562048
28.5814478
28.1047371
27.6267482
27.1489273
26.6705631
26.1912186
25.7127816
25.2358927
24.7610677
24.2887846
23.8194599
23.3535659
22.8917157
22.4344197
21.9819122
21.5345836
21.0932497
20.6598452
20.2337601
19.8165168
19.4087272
19.0126883
18.6365385
18.2738937
17.9511564
17.6320027
17.3718296
17.1489906
16.9209603
16.8140654
16.6164159
16.607806
16.5776276
16.4433687
16.4568725
16.2642676
16.2644915
16.1335611
15.9369013
15.8144616
15.4816845
15.3863607
15.1245939
14.9052662
14.6757125
14.3453457
14.1450025
13.8396214
13.5737191
13.3042975
13.0110236
12.7099689
12.3631501
11.9695793
11.5157388
11.0483759
10.5782637
10.1064125
9.65237108
9.23347097
8.85901247
8.52935102
8.24088218
7.988095
7.76531036
7.56811505
7.39591329
7.25800736
7.10371879
6.95818973
6.82086286
6.68727628
6.55485274
6.42271648
6.29071797
6.15890408
6.02735241
5.89616862
5.76553515
5.63578556
5.50750295
5.3816372
5.25962742
5.14355025
5.03652261
4.94794857
4.84868344
4.76205578
4.68254317
4.60721772
4.53371666
4.46008974
4.3848825
4.30713601
4.22639364
4.1426319
4.05647799
3.96969035
3.88743191
3.82442069
3.30027785
3.33265629
3.35563961
3.38479434
3.42156971
3.46980562
3.52603354
3.59848436
3.67930584
3.78013508
3.88961161
4.01957342
4.15908767
4.31555307
4.48422211
4.66475349
4.8596859
5.06265906
5.27944885
5.50272087
5.73564643
5.97858998
6.22691602
6.48813662
6.75058052
7.02784479
7.30632593
7.59808922
7.89473753
8.20408585
8.51865526
8.84352466
9.17263769
9.50873078
9.84928872
10.1934637
10.5449815
10.9002809
11.2676164
11.6406492
12.0285951
12.4233586
12.8332022
13.2509055
13.6796868
14.1181409
14.5657091
15.0229029
15.4893069
15.9657433
16.4516063
16.9478103
17.453567
17.9700188
18.4968048
19.0351345
19.5850583
20.1471597
20.7210759
21.3063797
21.9019708
22.5062033
23.11767
23.7332325
24.3529978
24.9721322
25.5930483
26.2127439
26.8351515
27.4583347
28.0851809
28.7150808
29.3446046
29.9782991
30.6020317
31.2267414
31.8406632
32.4436685
33.0333977
33.6086524
34.1680244
34.7100792
35.2342472
35.7402801
36.2274071
36.6951447
37.1433333
37.5718951
37.9796883
38.3668148
38.7325089
39.0766908
39.398637
39.6976913
39.9733921
40.2253953
40.4526599
40.6561946
40.8352654
40.993756
41.1323028
41.2515613
41.3514105
41.4346179
41.4967861
41.5427934
41.5720812
41.5777891
41.5682932
41.5394853
41.491005
41.4255482
41.3417399
41.2410373
41.1248433
40.9944865
40.8513912
40.6972673
40.5342459
40.3651142
40.1935927
40.0249279
39.8653646
39.7230489
39.6055951
39.5184283
39.4629374
39.4398188
39.4412058
39.4565909
39.485233
39.517118
39.5447326
39.5639497
39.5703547
39.5614811
39.5366188
39.4935
39.4316674
39.3526992
39.2577115
39.1472232
39.0200643
38.8722619
38.6984645
38.4953639
38.2629533
38.00331
37.719202
37.4134051
37.0885605
36.7471241
36.391001
36.0215525
35.6401505
35.2484622
34.8479763
34.4389186
34.0218754
33.5974448
33.166144
32.7284368
32.2847554
31.8355143
31.3811274
30.9220129
30.4586048
29.9913565
29.5207413
29.0472542
28.5714066
28.093755
27.6149709
27.1365945
26.6576623
26.1777466
25.6989897
25.2218732
24.7468953
24.274514
23.8051451
23.3392986
22.8775947
22.4204533
21.9680078
21.5208187
21.0798926
20.6470725
20.2210171
19.8033664
19.3944695
19.001134
18.6265699
18.2617417
17.9395139
17.6199034
17.3622762
17.1468356
16.9045531
16.8035613
16.6060435
16.6118133
16.5899625
16.4187177
16.4469268
16.2409884
16.2653593
16.1285369
15.9110869
15.8022853
15.4583861
15.3912039
15.1182276
14.8918908
14.6695646
14.3311704
14.1415425
13.8404552
13.5704576
13.3050998
13.0111084
12.7098965
12.3631463
11.9731479
11.5166113
11.0453613
10.5742062
10.1025385
9.64833207
9.22874706
8.85408519
8.52479634
8.23687481
7.98452959
7.7620681
7.56508798
7.39301935
7.25712668
7.10113082
6.95558813
6.81845349
6.68490138
6.55243633
6.42026878
6.28827915
6.15651389
6.02504197
5.89396118
5.76344884
5.63383559
5.5057026
5.37999671
5.25815094
5.14222795
5.03525439
4.94459944
4.84717737
4.76087128
4.68138348
4.60602278
4.53247235
4.45879713
4.38355034
4.30577658
4.22501859
4.14125161
4.05510321
3.96833209
3.88610006
3.82312694
9.28753545
9.48594743
9.55340865
9.6412923
9.7334795
9.85437958
9.98997222
10.1539118
10.3318343
10.5330745
10.7407581
10.9641871
11.1849594
11.4146554
11.6409313
11.8717269
12.103673
12.3347866
12.5690944
12.8012241
13.0390424
13.2747929
13.516621
13.7627061
14.013956
14.2800872
14.5499185
14.8372466
15.1323674
15.440839
15.7562457
16.0816449
16.4125541
16.7520302
17.0991545
17.4556937
17.8238195
18.2016295
18.5940242
18.9942285
19.4090042
19.8284854
20.2611961
20.6979074
21.1414667
21.5899069
22.0420859
22.4980247
22.9570135
23.4197697
23.8855168
24.3556024
24.8292602
25.3080082
25.7908864
26.2792699
26.7725919
27.2707299
27.7729846
28.2784524
28.7855702
29.2926817
29.7981531
30.2993298
30.7963671
31.2852627
31.7687726
32.2448406
32.7169617
33.1840325
33.6487406
34.1109284
34.5691293
35.0273079
35.4755638
35.9226554
36.3609566
36.7905206
37.2100915
37.6182581
38.0145285
38.3974402
38.7660394
39.1207599
39.4599664
39.7842386
40.0931784
40.3867581
40.6642
40.9256484
41.1704424
41.3985735
41.6091405
41.8015778
41.9756245
42.1304359
42.2649448
42.3802935
42.4754563
42.555497
42.6190287
42.6666251
42.698548
42.7171241
42.716978
42.7061952
42.6798192
42.6339947
42.5737478
42.4975364
42.4048615
42.2971193
42.1740876
42.0366987
41.8862018
41.723947
41.551401
41.3703585
41.1830641
40.9923942
40.8021159
40.6173501
40.4439305
40.289187
40.1595537
40.0592182
39.9888309
39.9474682
39.9290025
39.9248745
39.9295105
39.9377209
39.9412347
39.9367813
39.9208654
39.889144
39.8422137
39.7784601
39.6973151
39.5996721
39.4864459
39.3577986
39.2121416
39.045608
38.8536703
38.6338649
38.3864725
38.1134537
37.8173613
37.5007588
37.1660985
36.8156898
36.4512936
36.0741572
35.6856213
35.2873779
34.8808954
34.4661225
34.0437593
33.6143928
33.1785236
32.7366014
32.289046
31.83626
31.3786465
30.9166104
30.450575
29.9809802
29.5082858
29.0329724
28.5555362
28.0765173
27.5965816
27.1174271
26.6374079
26.1569058
25.6777169
25.2002911
24.7251079
24.2525892
23.7831765
23.3174635
22.8560344
22.3990871
21.946665
21.4997955
21.0596872
20.6278334
20.2013647
19.7829106
19.3757387
18.983851
18.6122479
18.2418595
17.9234165
17.6003833
17.3484538
17.148263
16.874415
16.8000449
16.5821019
16.6205204
16.6205011
16.3730638
16.4537485
16.1872115
16.2684332
16.1311422
15.8672658
15.7929588
15.3995917
15.3987435
15.1099916
14.8719043
14.6554679
14.2845948
14.1285538
13.8275498
13.5631466
13.2907989
12.9898743
12.6969701
12.3544641
11.9691356
11.5059614
11.0299513
10.5606222
10.0912483
9.6378476
9.21805486
8.8441892
8.51643156
8.22995203
7.97864028
7.75689299
7.56039389
7.38857227
7.25586695
7.09710812
6.95167252
6.81484458
6.68133385
6.54879775
6.41657858
6.28459964
6.15290562
6.02155217
5.89062498
5.7602936
5.63088437
5.50297556
5.37750942
5.2559098
5.14021925
5.03331354
4.93987525
4.8450397
4.75908693
4.67962413
4.60420932
4.53058451
4.4568364
4.38153076
4.30371695
4.22293559
4.13916006
4.05302026
3.96627428
3.88408188
3.82116128
23.0110296
24.6996969
24.489577
24.0738211
23.6142605
23.1778064
22.7629091
22.39841
22.0738242
21.8042807
21.5719828
21.4008207
21.2582622
21.1739918
21.1157296
21.1188399
21.1415032
21.1943563
21.2857955
21.4021161
21.548474
21.7159825
21.9156204
22.1348393
22.38629
22.6526319
22.9425685
23.2454389
23.5573509
23.8800016
24.208524
24.5455623
24.888148
25.2398331
25.5993123
25.9677316
26.3444146
26.7276319
27.1197102
27.5150982
27.9198824
28.3248885
28.739213
29.1521652
29.5657633
29.9772665
30.3852628
30.7903639
31.1930361
31.5949977
31.9965726
32.3995205
32.8032534
33.2092096
33.6157878
34.0248399
34.4345893
34.8451708
35.2561477
35.6663082
36.0737736
36.4764922
36.8725549
37.2587629
37.6359394
38.0000038
38.353655
38.6951077
39.0276549
39.3502092
39.6650046
39.9722783
40.2718959
40.56707
40.8509473
41.1306462
41.4020791
41.6652324
41.9193411
42.1631496
42.3967039
42.6186844
42.8284425
43.0269067
43.211677
43.3852092
43.5466542
43.6961529
43.833428
43.9588637
44.0718429
44.1725098
44.2598086
44.333565
44.3936794
44.438621
44.4677425
44.4824155
44.4813319
44.4711173
44.4473485
44.4112835
44.3637746
44.3062179
44.2352303
44.1539245
44.0612483
43.9540449
43.8342066
43.7014599
43.5555472
43.3972729
43.2268606
43.0450928
42.8531324
42.6523373
42.4442148
42.2306576
42.0140226
41.7972349
41.5840283
41.3792527
41.1881262
41.0169277
40.8707054
40.7523034
40.6615613
40.5964801
40.5518151
40.520175
40.4955542
40.4729936
40.4461028
40.4112256
40.3654144
40.3053567
40.2307425
40.1406214
40.0344021
39.912566
39.7756663
39.6233739
39.453738
39.2632481
39.0484005
38.8075813
38.5413004
38.2513641
37.9400681
37.6097285
37.2625758
36.9007339
36.5257862
36.13884
35.7414052
35.3348361
34.9205022
34.4984164
34.0692686
33.633611
33.1919219
32.7446325
32.2921473
31.8348547
31.3731403
30.9073967
30.4380311
29.9654667
29.4901456
29.0125303
28.5330984
28.0523692
27.5709956
27.0909107
26.609424
26.1283035
25.6485962
25.1707947
24.695355
24.2227006
23.7533249
23.2878199
22.8266047
22.36977
21.9176137
21.4714515
21.0321161
20.5998499
20.172893
19.7548996
19.3497995
18.9569222
18.5797844
18.2115698
17.8871063
17.571219
17.3031348
17.0821955
16.8270531
16.7163757
16.5272882
16.5149136
16.4878042
16.290035
16.3007029
16.0907226
16.0944828
15.9797074
15.7518498
15.6212186
15.2790198
15.2000607
14.9750881
14.7461016
14.4888562
14.1481521
13.9598373
13.7009567
13.4419849
13.1506371
12.8557913
12.5683566
12.2420434
11.8581408
11.4048905
10.9446693
10.4902957
10.0341777
9.59176027
9.1831586
8.81854461
8.4974729
8.21568878
7.96768056
7.74817926
7.55304785
7.3818626
7.25383006
7.09126425
6.94627581
6.80993331
6.67649758
6.54388232
6.41161013
6.27965877
6.14806974
6.01688093
5.88616239
5.75607406
5.62693723
5.49932681
5.37417909
5.25290612
5.13752638
5.03076457
4.9357168
4.8423537
4.75671796
4.67727079
4.60178178
4.52805758
4.45421417
4.37883284
4.30096582
4.2201509
4.13636368
4.05023736
3.96352496
3.8813839
3.81853014
15.6443882
23.7422785
27.1380098
27.7226855
27.8148199
27.7675456
27.6467792
27.4581216
27.2519814
27.0846864
26.9569118
26.8757092
26.8025469
26.7810555
26.7932567
26.8393478
26.9328824
27.0571606
27.209597
27.3780269
27.5708746
27.7841124
28.0314452
28.2953156
28.5874061
28.8856566
29.1928974
29.4984261
29.8037957
30.1149319
30.4314361
30.754903
31.0829024
31.4177141
31.7570335
32.1004848
32.4465422
32.7955381
33.1507796
33.5092915
33.8765659
34.2434061
34.6174434
34.9860337
35.3499633
35.706155
36.0545844
36.3975937
36.737409
37.0765302
37.4156017
37.7557133
38.0959964
38.4369773
38.7773897
39.1185315
39.4592939
39.8005874
40.1420353
40.4822073
40.8189596
41.1499767
41.4727619
41.7846328
42.0855891
42.3718648
42.6466332
42.9074392
43.1576468
43.3955075
43.6233341
43.8416111
44.0505056
44.2526013
44.442663
44.6268127
44.8027779
44.9700527
45.127619
45.2744193
45.4109303
45.5357162
45.6486915
45.7508317
45.8394935
45.9189961
45.9873632
46.0452437
46.0927281
46.1303721
46.1575783
46.1746391
46.1804179
46.1752864
46.1590232
46.1295974
46.0871747
46.0333278
45.9670492
45.8927028
45.808206
45.714162
45.6109891
45.4998251
45.3781172
45.2474966
45.1076253
44.9560014
44.7935447
44.6202067
44.4358665
44.2411588
44.0364319
43.8224606
43.6004
43.3716194
43.1376507
42.9004466
42.6624099
42.4264344
42.1961447
41.9760949
41.7709734
41.586276
41.4261138
41.2924927
41.1847618
41.1004879
41.0347916
40.9809711
40.9331906
40.8867103
40.8360048
40.7775192
40.7085915
40.6263934
40.530329
40.4196049
40.2936362
40.1526781
39.9969817
39.8258943
39.6373796
39.428348
39.1959835
38.9391342
38.6584024
38.3554761
38.0324695
37.6915241
37.3347112
36.9640175
36.5808936
36.1863422
35.7820845
35.3690723
34.9485834
34.5208333
34.0864325
33.6459064
33.1997159
32.7482783
32.2919864
31.8312182
31.3663435
30.8977483
30.425826
29.9509871
29.4736601
28.9942929
28.5133492
28.0313318
27.5488824
27.0681626
26.5855917
26.1039805
25.6239169
25.1458732
24.6702848
24.1975882
23.7283183
23.263025
22.8019798
22.3452719
21.8934941
21.448026
21.0091801
20.5765398
20.1491709
19.7322275
19.3283241
18.9343237
18.5528859
18.1833015
17.8591457
17.5463319
17.2685198
17.0237166
16.7742383
16.6513028
16.4749961
16.4390651
16.3553066
16.1894176
16.1839435
16.0086371
15.9671934
15.8140107
15.6035576
15.4712045
15.1748109
15.0337128
14.7807293
14.5608675
14.3254932
14.0188693
13.788979
13.5112084
13.2533132
12.9848567
12.6973808
12.39468
12.0661313
11.6995049
11.2764736
10.8374579
10.3983857
9.96036112
9.5374011
9.14459859
8.7909941
8.47770756
8.2015353
7.95735993
7.74029514
7.54659032
7.37601583
7.25222739
7.08610145
6.94179424
6.80588547
6.67250058
6.53981486
6.40750028
6.27557495
6.14407505
6.01302309
5.88247659
5.75258812
5.62367497
5.4963092
5.37142214
5.25041628
5.13529252
5.02868325
4.93302143
4.84023221
4.75476432
4.67531533
4.59976349
4.52595909
4.45204027
4.37659872
4.29868845
4.21784754
4.13405395
4.04794061
3.96125596
3.87915791
3.81636015
0.474679289
0.21730432
0.113686334
0.0796690093
0.0713689122
0.0725296604
0.0756120338
0.0832251388
0.0892387337
0.0915419982
0.0943101954
0.100918696
0.106287506
0.107799972
0.109059335
0.113105639
0.116937438
0.117891782
0.11903545
0.122578803
0.125068692
0.125538679
0.126458891
0.129520469
0.13154163
0.131893112
0.13211237
0.132700159
0.134593126
0.13769785
0.139385715
0.140188682
0.14197388
0.144324167
0.146170135
0.149640566
0.155364671
0.171234765
0.188019908
0.28351056
0.715651982
0.59755941
0.509721638
0.507060701
0.522682706
0.560217424
0.58873447
0.643603903
0.696035474
0.714196176
0.721982901
0.756641623
0.810941222
0.827083437
0.828418927
0.844537453
0.883983871
0.893893062
0.895013433
0.912513211
0.941068444
0.945478581
0.945529851
0.961229358
0.985369642
0.989756027
0.989266517
0.989246656
0.994823449
1.01853535
1.03535967
1.03879203
1.04341659
1.05569796
1.05650904
1.05338748
1.042164
1.0279831
0.985585277
0.844531042
0.762785752
0.734699521
0.691369809
0.659927176
0.641830063
0.63351972
0.63344689
0.636441217
0.64710751
0.652523731
0.652937687
0.656495291
0.672398841
0.680904613
0.681111141
0.682446118
0.692686888
0.699295943
0.700065219
0.702908435
0.713425343
0.717568854
0.718205429
0.721239461
0.731512957
0.737130251
0.73826897
0.738298565
0.739211931
0.746174653
0.7583324
0.762447556
0.767059036
0.773558764
0.77322642
0.769306418
0.757161095
0.734021002
0.701621816
0.627921885
0.764970595
0.759219341
0.74480715
0.719301345
0.688304449
0.658820908
0.632196318
0.607344053
0.589889162
0.575535952
0.558388782
0.544182067
0.537645949
0.532248526
0.522862012
0.51449925
0.511454244
0.50821566
0.502526712
0.500158409
0.500084627
0.499063226
0.49780732
0.49788621
0.499179246
0.502524614
0.504093961
0.504282761
0.504811052
0.507638834
0.51346703
0.518390902
0.527179719
0.536201376
0.540965439
0.54306976
0.547059979
0.559101818
0.574567106
0.60548964
0.765804428
0.755649434
0.731364349
0.697011797
0.658931212
0.628553064
0.605522267
0.583911542
0.572585741
0.569343171
0.561241364
0.553181343
0.553028371
0.558828807
0.561718558
0.561539914
0.563142809
0.568323855
0.571278575
0.578964992
0.587504628
0.591116966
0.59942892
0.606752398
0.615990982
0.630275086
0.638810201
0.641932174
0.648142091
0.661372415
0.669618777
0.684953769
0.712021165
0.733392037
0.743105208
0.751606393
0.771267202
0.826868457
0.884262729
0.967222782
0.76028224
0.71719737
0.647113566
0.596304504
0.562997628
0.559268619
0.563565153
0.571786008
0.58792116
0.621232143
0.637157861
0.64318537
0.661466025
0.711306948
0.733270941
0.740930161
0.764565877
0.790394961
0.805148699
0.841748567
0.867499429
0.878667715
0.907530381
0.929492932
0.956637675
0.990696905
1.00573593
1.01170244
1.03208104
1.05880244
1.074549
1.11178648
1.16872741
1.19723188
1.20199116
1.20821197
1.2451797
1.31427808
1.33071585
1.35845152
0.705574403
0.544364554
0.436910515
0.4018175
0.410161785
0.436293726
0.469133584
0.489630489
0.542463474
0.605528178
0.623522961
0.626657026
0.670045744
0.749136509
0.766826282
0.770411601
0.808540428
0.840153707
0.858437687
0.909888013
0.934337879
0.944843418
0.984792936
1.01056844
1.04710233
1.07952144
1.08611942
1.09163419
1.12734944
1.15208098
1.17155587
1.23457635
1.28849977
1.29517017
1.28665276
1.29460095
1.35453883
1.37160591
1.32343371
1.35349227
0.456728211
0.190595154
0.0891902612
0.0552624019
0.0470820877
0.0476183001
0.0498491064
0.0527132751
0.0594174101
0.0648593662
0.0665096179
0.0684829766
0.0756643559
0.0819766926
0.0833556917
0.0851463125
0.0903695141
0.0931288005
0.0963496356
0.101888861
0.104073343
0.106400305
0.111494778
0.114249472
0.118557008
0.121575209
0.122533935
0.124622774
0.129438427
0.132022451
0.13584574
0.143686483
0.147963332
0.148211509
0.148217065
0.151902106
0.158225329
0.158464363
0.152937912
0.160057391
4.91648658
9.69868255
15.174361
19.3846495
22.9807522
25.3898627
27.0916751
28.3071225
29.2152081
29.9309302
30.4912518
30.9096558
31.2104342
31.4887601
31.7575387
32.0323598
32.3107269
32.5993605
32.880974
33.1482973
33.4257373
33.7183674
34.0400861
34.3669049
34.7102125
35.0410753
35.3587513
35.6583254
35.9501409
36.2456452
36.5470939
36.8528307
37.1605972
37.4711666
37.7814702
38.089928
38.3955994
38.7022114
39.0147178
39.3321057
39.6582351
39.9831351
40.3123285
40.6308256
40.9390333
41.234027
41.5179934
41.795416
42.0702029
42.3451608
42.6207133
42.8969514
43.1726395
43.4473601
43.720457
43.9923802
44.2643076
44.5369613
44.8099185
45.0816941
45.3498477
45.6116342
45.8641857
46.1051981
46.3338931
46.5470788
46.7481653
46.9339636
47.108012
47.2676726
47.4156312
47.5525159
47.6785446
47.7957757
47.9004352
47.9978096
48.0869803
48.1668669
48.2360074
48.2936585
48.3407286
48.3755751
48.3987463
48.4110874
48.4099201
48.4015352
48.38239
48.3539391
48.3165987
48.2710598
48.2167396
48.1540909
48.0823136
48.0012753
47.9110498
47.8103462
47.6988846
47.5787383
47.4490621
47.3126483
47.1689714
47.0183061
46.8607433
46.6971282
46.5255888
46.3466783
46.1604509
45.9650129
45.7605787
45.5472263
45.3249534
45.0942761
44.8556355
44.6098175
44.3579819
44.1015099
43.8419538
43.5813188
43.322035
43.0669376
42.8195119
42.5839862
42.3645013
42.1657849
41.9910486
41.8415211
41.7161045
41.6120228
41.5247182
41.4481328
41.3766834
41.3058722
41.2309256
41.1484579
41.0560713
40.9513434
40.8334706
40.7017637
40.555634
40.395121
40.2201744
40.0298537
39.8221104
39.5943065
39.3442692
39.0712527
38.7759307
38.4598725
38.1250153
37.773328
37.4067255
37.0270576
36.6356419
36.2333762
35.8221868
35.4026334
34.9759263
34.5424347
34.1027093
33.6572492
33.2064976
32.7508582
32.2907121
31.8264241
31.3583543
30.8868764
30.4123718
29.9352376
29.4558887
28.9747586
28.4922965
28.0089887
27.5254628
27.0438724
26.5604701
26.0783787
25.5979713
25.1196984
24.6439787
24.1712677
23.7021316
23.237059
22.7761859
22.3196528
21.8683292
21.4235766
20.9851244
20.5521272
20.1246083
19.7087877
19.3060426
18.9102366
18.5257772
18.1545933
17.8318052
17.5201051
17.2321663
16.9695448
16.7199533
16.5923614
16.4207863
16.3637059
16.235576
16.0850667
16.0811819
15.9205604
15.8494824
15.6579052
15.457004
15.3353008
15.0650379
14.8825845
14.5985381
14.387766
14.1761359
13.8929028
13.6338908
13.3353225
13.0809345
12.834361
12.5526127
12.2384521
11.9081613
11.5574806
11.1598777
10.739642
10.3145074
9.89259287
9.48691227
9.10828202
8.76475639
8.45867666
8.18773783
7.94715204
7.73238127
7.5400276
7.36999049
7.24404738
7.08068358
6.9371211
6.80165685
6.66831212
6.53554889
6.40319184
6.27129739
6.13989426
6.00898834
5.87862402
5.74894609
5.6202675
5.49315723
5.36854133
5.24781227
5.13295334
5.02652179
4.93035917
4.83803219
4.75271086
4.67325366
4.59763542
4.52374902
4.44975473
4.37425405
4.29630257
4.21543928
4.13164415
4.04554862
3.95889659
3.87684628
3.81410313
0.930234584
1.30300807
2.08584758
3.31540939
5.00531871
7.62434545
11.0234289
14.7402307
18.2799907
21.5835018
24.4216301
26.7545385
28.749851
30.5759661
32.1982582
33.7527093
35.1296695
36.3470045
37.3632858
38.2448204
39.0733922
39.8566446
40.5956586
41.2559715
41.8584482
42.3663668
42.7936043
43.1732271
43.5375012
43.9040489
44.2658032
44.6094519
44.9358637
45.2457171
45.537672
45.8114829
46.0747042
46.3409612
46.6177736
46.9024519
47.1916252
47.4720566
47.7446565
47.993437
48.2208031
48.4277764
48.6233421
48.8156783
49.0096855
49.2058948
49.4020979
49.596067
49.7862399
49.971584
50.1534113
50.3321916
50.5134739
50.6975148
50.8834346
51.068885
51.2508003
51.4253025
51.5901422
51.7421501
51.8820032
52.0068017
52.1188776
52.2149048
52.2989629
52.3661188
52.4214616
52.4646837
52.4955536
52.5163288
52.5249368
52.5243084
52.5161959
52.4968194
52.4639446
52.4180782
52.3604271
52.2888085
52.2049175
52.1090277
52.0000962
51.8823575
51.7552553
51.6201744
51.4765665
51.3258466
51.1674388
51.0021549
50.8294415
50.6490667
50.4612555
50.2654924
50.0617046
49.8521383
49.6361437
49.4155548
49.1906561
48.961745
48.7287333
48.49209
48.2505285
48.0039442
47.7524411
47.4947436
47.2306527
46.9603166
46.6838527
46.4017183
46.1144415
45.8228668
45.5281944
45.2318169
44.9352944
44.6406662
44.3503154
44.0668723
43.7935044
43.5338598
43.2912351
43.0693002
42.8701268
42.6940255
42.5394027
42.4032486
42.2814161
42.1686504
42.0599165
41.9511421
41.8383781
41.7186478
41.5898416
41.4499352
41.2980221
41.1334423
40.9555446
40.7640581
40.5585381
40.3378272
40.100153
39.8435742
39.5666509
39.2690395
38.9514541
38.615291
38.2622397
37.8940243
37.5123357
37.118823
36.7146036
36.3005753
35.8785183
35.4488343
35.0125906
34.5702547
34.122326
33.6692691
33.211501
32.7494066
32.283347
31.8136615
31.340704
30.8648261
30.3863902
29.9057731
29.4233684
28.9395875
28.454856
27.9696345
27.4845166
27.001261
26.5170995
26.034348
25.5534822
25.0749358
24.5991322
24.126529
23.6576428
23.1928799
22.7324033
22.2764929
21.825965
21.3818196
20.943535
20.5109055
20.0844258
19.6694994
19.2659063
18.8670368
18.4824185
18.1102325
17.7863499
17.462168
17.1639989
16.8954991
16.6367682
16.5030721
16.2958286
16.2176507
16.0818616
15.9251224
15.9257938
15.7199011
15.6494805
15.449371
15.2487728
15.1233145
14.8183845
14.6474314
14.3684832
14.1636063
13.942523
13.6465483
13.4062332
13.114573
12.8612824
12.6016005
12.3175591
12.0233659
11.7045229
11.3656951
10.987775
10.5941767
10.1957376
9.79773095
9.41335847
9.05333307
8.72480078
8.42967212
8.16634625
7.93089625
7.71951247
7.52924602
7.3599532
7.22562529
7.07123081
6.9293882
6.79466035
6.66134224
6.52843955
6.39601932
6.26418651
6.13295076
6.0022901
5.87222857
5.74289876
5.61460686
5.48791728
5.36374783