/*--------------------------------*- C++ -*----------------------------------*\
  =========                 |
  \\      /  F ield         | OpenFOAM: The Open Source CFD Toolbox
   \\    /   O peration     | Website:  https://openfoam.org
    \\  /    A nd           | Version:  6
     \\/     M anipulation  |
\*---------------------------------------------------------------------------*/
FoamFile
{
    version     2.0;
    format      ascii;
    class       volScalarField;
    location    "25000";
    object      N;
}
// * * * * * * * * * * * * * * * * * * * * * * * * * * * * * * * * * * * * * //

dimensions      [0 0 0 0 0 0 0];

internalField   nonuniform List<scalar> 
44870
(
5.0805492e-73
2.62483893e-72
4.30604337e-72
3.74911304e-72
4.96901538e-72
6.34409355e-72
7.90208037e-72
8.90758152e-72
8.00725838e-72
8.51588229e-72
1.40664289e-71
1.41926522e-71
1.31929986e-71
1.3828276e-71
1.6139578e-71
1.61930185e-71
1.5533888e-71
3.45854501e-70
5.2637703e-68
8.46694486e-66
1.38514565e-63
2.3033135e-61
3.89094791e-59
6.67483499e-57
1.16208896e-54
2.0524975e-52
3.67484542e-50
6.66700297e-48
1.22432799e-45
2.27467213e-43
4.26840684e-41
8.08234932e-39
1.53969281e-36
2.94457719e-34
5.61833078e-32
1.06298457e-29
1.96442797e-27
3.47617225e-25
5.54697725e-23
7.49315289e-21
4.53995727e-73
1.47639371e-72
3.92814864e-72
4.57150005e-72
6.82376991e-72
8.11083729e-72
8.3855309e-72
6.31870001e-72
7.60188317e-72
1.15446976e-71
1.44071258e-71
1.22007934e-71
1.50228215e-71
1.40109876e-71
1.53764145e-71
1.41216368e-71
1.87867875e-71
4.89693333e-70
8.29308328e-68
1.46548607e-65
2.63255937e-63
4.80402314e-61
8.89075999e-59
1.66875011e-56
3.1709851e-54
6.10453992e-52
1.18813648e-49
2.34141869e-47
4.65978096e-45
9.38843327e-43
1.90825079e-40
3.92673596e-38
8.14033976e-36
1.70847758e-33
3.60247425e-31
7.67166361e-29
1.62660126e-26
3.44237094e-24
6.81090254e-22
1.28247151e-19
3.41952952e-72
6.93492817e-72
8.89606822e-72
8.20203512e-72
7.6310598e-72
1.04726081e-71
1.13886359e-71
1.10928308e-71
9.97529719e-72
1.01656556e-71
1.31551896e-71
1.30896594e-71
1.16880542e-71
1.34905351e-71
1.302805e-71
1.53464223e-71
2.49059236e-71
1.52601426e-69
3.05804739e-67
6.22740251e-65
1.27636088e-62
2.63490172e-60
5.46681452e-58
1.14223952e-55
2.39642671e-53
5.06602779e-51
1.07465076e-48
2.29917535e-46
4.93248909e-44
1.06893299e-41
2.32077459e-39
5.09959391e-37
1.1210634e-34
2.50116034e-32
5.57798033e-30
1.26610828e-27
2.86887562e-25
6.66903767e-23
1.4875817e-20
3.40990971e-18
2.9172325e-72
3.57017028e-72
4.83039904e-72
5.03339016e-72
7.10638959e-72
7.00498113e-72
7.30252777e-72
6.76229764e-72
6.82997431e-72
6.12098902e-72
1.44938091e-71
2.18448187e-71
1.92039686e-71
1.43029947e-71
1.19694019e-71
1.89547761e-71
1.08321104e-70
1.97168618e-68
4.42799963e-66
9.91354789e-64
2.21164754e-61
4.92047129e-59
1.09195411e-56
2.42017891e-54
5.35566255e-52
1.18535312e-49
2.62184443e-47
5.80718435e-45
1.28616478e-42
2.85712583e-40
6.34820245e-38
1.41688369e-35
3.16289395e-33
7.10329405e-31
1.59535842e-28
3.6028208e-26
8.11374206e-24
1.82970935e-21
3.99151535e-19
8.46602364e-17
1.32859785e-71
1.13006542e-71
8.67993421e-72
6.04742265e-72
9.25654816e-72
8.39821816e-72
1.20788957e-71
1.24161679e-71
2.00757383e-71
2.11790601e-71
1.79581012e-71
7.76185065e-72
1.28070181e-71
1.43486659e-71
1.26693515e-71
1.67888538e-71
1.78184035e-69
4.09836732e-67
9.40937118e-65
2.14099905e-62
4.83336059e-60
1.08367449e-57
2.4151526e-55
5.35465136e-53
1.18182822e-50
2.59839298e-48
5.6939487e-46
1.24398585e-43
2.71130522e-41
5.89639397e-39
1.28010122e-36
2.77477649e-34
6.00750785e-32
1.29920783e-29
2.80752847e-27
6.06229589e-25
1.30836845e-22
2.82218429e-20
6.08497857e-18
1.31851934e-15
2.37864382e-19
8.80528453e-19
2.05267293e-18
3.94761811e-18
6.91884128e-18
1.3477295e-17
2.90580959e-17
6.15844627e-17
1.20184926e-16
2.14618602e-16
3.53648903e-16
5.46401679e-16
8.00396165e-16
1.12400381e-15
1.52367722e-15
2.00475852e-15
2.57193661e-15
3.22601077e-15
3.97026881e-15
4.80217238e-15
5.7229333e-15
6.72997185e-15
7.82132054e-15
8.99400203e-15
1.02433897e-14
1.1564336e-14
1.29445166e-14
1.43836972e-14
1.58658316e-14
1.73969742e-14
1.89681441e-14
2.05793866e-14
2.22298485e-14
2.39067714e-14
2.56083913e-14
2.73138182e-14
2.90233786e-14
3.07309764e-14
3.24605156e-14
3.42408627e-14
3.61181695e-14
3.81323702e-14
4.03103103e-14
4.26542854e-14
4.51544675e-14
4.77963878e-14
5.06133153e-14
5.37150113e-14
5.72906695e-14
6.15694898e-14
6.67449653e-14
7.28994754e-14
7.9953183e-14
8.76892466e-14
9.58567294e-14
1.0436565e-13
1.1346611e-13
1.23818308e-13
1.36341267e-13
1.51890859e-13
1.70908091e-13
1.93247556e-13
2.18341345e-13
2.45579569e-13
2.74768251e-13
3.06219979e-13
3.40740382e-13
3.79245068e-13
4.22826224e-13
4.72911306e-13
5.32339714e-13
6.06491611e-13
7.04085901e-13
8.37379817e-13
1.01926242e-12
1.26199824e-12
1.57109517e-12
1.94671646e-12
2.38247724e-12
2.86449327e-12
3.38097223e-12
3.9293242e-12
4.52397667e-12
5.20092724e-12
6.01963573e-12
7.05647394e-12
8.39556628e-12
1.01069223e-11
1.22341222e-11
1.47845159e-11
1.77283892e-11
2.10143169e-11
2.45835179e-11
2.83944907e-11
3.24431588e-11
3.6779254e-11
4.15159883e-11
4.68352532e-11
5.29842801e-11
6.02711645e-11
6.90460976e-11
7.96795732e-11
9.25419788e-11
1.07993375e-10
1.26351008e-10
1.47921018e-10
1.73015406e-10
2.01955772e-10
2.35172378e-10
2.73134871e-10
3.16379945e-10
3.6557894e-10
4.21628908e-10
4.8580454e-10
5.59848503e-10
6.4611365e-10
7.47906994e-10
8.69909797e-10
1.01867996e-09
1.20337229e-09
1.43733788e-09
1.74060499e-09
2.14340069e-09
2.68999593e-09
3.44131952e-09
4.46939918e-09
5.84221576e-09
7.60244524e-09
9.75578399e-09
1.22764476e-08
1.51229202e-08
1.82560622e-08
2.16562902e-08
2.53367422e-08
2.93521026e-08
3.38046452e-08
3.8843149e-08
4.46685263e-08
5.14869792e-08
5.93183316e-08
6.8281617e-08
7.74943602e-08
8.34722037e-08
8.10961668e-08
7.1221885e-08
5.88998785e-08
4.69342037e-08
3.64607706e-08
2.74762723e-08
2.09887575e-08
1.63916799e-08
1.31164783e-08
1.07356285e-08
8.97647741e-09
7.65111587e-09
6.6287985e-09
5.81487921e-09
5.14342834e-09
4.57005851e-09
4.06575063e-09
3.61217112e-09
3.19832914e-09
2.81802952e-09
2.46810207e-09
2.14712661e-09
1.8545368e-09
1.59003228e-09
1.3531913e-09
1.14326407e-09
9.59105135e-10
7.99192355e-10
6.61698396e-10
5.44587393e-10
4.4571964e-10
3.62939946e-10
2.94157636e-10
2.3740382e-10
1.9087381e-10
1.52946409e-10
1.22192144e-10
9.73706564e-11
7.74202253e-11
6.14431067e-11
4.86888789e-11
3.85360225e-11
3.04728984e-11
2.40811434e-11
1.90220325e-11
1.50236374e-11
1.18673906e-11
9.37584839e-12
7.41098106e-12
5.85995453e-12
4.63799995e-12
3.67475693e-12
2.91347334e-12
2.3102792e-12
1.8332046e-12
1.45678374e-12
1.15854129e-12
9.21765645e-13
7.32842242e-13
5.83298801e-13
4.64813191e-13
3.70595168e-13
2.95679465e-13
2.35824471e-13
1.88740737e-13
1.51357034e-13
1.21462174e-13
9.74590747e-14
7.81754921e-14
6.2829741e-14
5.05152379e-14
4.06317225e-14
3.26680147e-14
2.62779783e-14
2.11480405e-14
1.70349993e-14
1.37901211e-14
1.11822597e-14
9.10180833e-15
7.44408328e-15
6.11379705e-15
5.04120731e-15
4.17269659e-15
3.46655333e-15
2.8890916e-15
2.41394252e-15
2.0216551e-15
1.69744283e-15
1.42942479e-15
1.20779526e-15
1.02434445e-15
8.72148958e-16
7.45392137e-16
6.39144739e-16
5.49253223e-16
4.7394954e-16
4.10328564e-16
3.56197483e-16
3.09900423e-16
2.70133351e-16
2.35841684e-16
2.06164353e-16
1.80395082e-16
1.57952704e-16
1.38358163e-16
1.21216204e-16
1.06200766e-16
9.30429738e-17
8.15206206e-17
7.14481176e-17
6.26662588e-17
5.50295821e-17
4.83700655e-17
4.26977573e-17
3.78018946e-17
3.3578621e-17
2.99315547e-17
2.67738601e-17
2.40292872e-17
2.16321574e-17
1.95270161e-17
1.76684179e-17
1.60213644e-17
1.45637334e-17
1.32935049e-17
1.2248347e-17
1.15552241e-17
4.93232847e-18
1.51094534e-17
2.9746724e-17
5.03219699e-17
8.12802414e-17
1.80546868e-16
4.3278094e-16
9.17783363e-16
1.68995449e-15
2.78179828e-15
4.19733114e-15
5.94543159e-15
8.0228268e-15
1.04307648e-14
1.31482642e-14
1.6139738e-14
1.93607633e-14
2.27467735e-14
2.62528114e-14
2.98213303e-14
3.34209044e-14
3.70105398e-14
4.0543237e-14
4.39746934e-14
4.72311548e-14
5.02676342e-14
5.30227041e-14
5.5496108e-14
5.7709907e-14
5.97276799e-14
6.15948382e-14
6.33385742e-14
6.49396829e-14
6.63495824e-14
6.75133154e-14
6.84181366e-14
6.9165797e-14
6.99741653e-14
7.11350547e-14
7.28834467e-14
7.53252051e-14
7.83664847e-14
8.17686109e-14
8.52220906e-14
8.85472445e-14
9.1852014e-14
9.56685407e-14
1.0080712e-13
1.08019185e-13
1.17633143e-13
1.2935069e-13
1.42311221e-13
1.55395715e-13
1.6771568e-13
1.79163129e-13
1.90823971e-13
2.04886106e-13
2.2394282e-13
2.49939613e-13
2.83351696e-13
3.23026914e-13
3.66871164e-13
4.13038287e-13
4.6094026e-13
5.11467059e-13
5.66250502e-13
6.26940902e-13
6.94483193e-13
7.69751484e-13
8.54760836e-13
9.55231852e-13
1.08240289e-12
1.25304085e-12
1.48726109e-12
1.80205944e-12
2.20782783e-12
2.70054108e-12
3.26852869e-12
3.88748111e-12
4.5352201e-12
5.1989993e-12
5.88579431e-12
6.63019591e-12
7.49638773e-12
8.57507939e-12
9.96932152e-12
1.17769028e-11
1.4062674e-11
1.68461737e-11
2.00994293e-11
2.37534142e-11
2.77246843e-11
3.19393455e-11
3.63591165e-11
4.10017111e-11
4.59540925e-11
5.13777625e-11
5.75092793e-11
6.46517247e-11
7.31668029e-11
8.34475478e-11
9.58946483e-11
1.10896074e-10
1.28817388e-10
1.49965905e-10
1.74642087e-10
2.03156853e-10
2.35845896e-10
2.73170876e-10
3.15627226e-10
3.63774612e-10
4.18340194e-10
4.80336715e-10
5.51184924e-10
6.32821803e-10
7.27851636e-10
8.39952682e-10
9.74318239e-10
1.13815639e-09
1.34139137e-09
1.59841156e-09
1.93055778e-09
2.36953405e-09
2.96083406e-09
3.76613061e-09
4.85671545e-09
6.29825357e-09
8.12941586e-09
1.03526618e-08
1.2940548e-08
1.58519378e-08
1.90492751e-08
2.25153146e-08
2.6266041e-08
3.03592227e-08
3.48998307e-08
4.00353213e-08
4.59603683e-08
5.28520735e-08
6.07387087e-08
6.96340859e-08
7.8454678e-08
8.35143419e-08
8.02421006e-08
7.01016994e-08
5.78747636e-08
4.61015147e-08
3.58456591e-08
2.70942732e-08
2.07443657e-08
1.62321922e-08
1.30077182e-08
1.06549595e-08
8.91383018e-09
7.60126741e-09
6.58774039e-09
5.7796876e-09
5.11226964e-09
4.54188059e-09
4.04000676e-09
3.58860842e-09
3.17684866e-09
2.79860107e-09
2.45070878e-09
2.13173441e-09
1.84107997e-09
1.57841001e-09
1.34327319e-09
1.13489774e-09
9.52125242e-10
7.93429359e-10
6.56986082e-10
5.40768679e-10
4.42650615e-10
3.60491899e-10
2.92218309e-10
2.35876915e-10
1.8967827e-10
1.52014921e-10
1.21469551e-10
9.68122891e-11
7.6990205e-11
6.11127934e-11
4.84356672e-11
3.83423313e-11
3.03250725e-11
2.39684076e-11
1.89359312e-11
1.49578612e-11
1.18173707e-11
9.33763123e-12
7.38197125e-12
5.8375928e-12
4.62085434e-12
3.661856e-12
2.90375686e-12
2.30275372e-12
1.82723707e-12
1.45224739e-12
1.1552132e-12
9.19301055e-13
7.30884716e-13
5.81706361e-13
4.63634006e-13
3.69769507e-13
2.95072523e-13
2.35311461e-13
1.88323462e-13
1.51058463e-13
1.21255045e-13
9.73012491e-14
7.80393499e-14
6.2722849e-14
5.044204e-14
4.05828772e-14
3.26309002e-14
2.62466727e-14
2.11237345e-14
1.70160766e-14
1.37791755e-14
1.11731608e-14
9.0938621e-15
7.43769021e-15
6.1088088e-15
5.0370567e-15
4.16900191e-15
3.46323862e-15
2.88616424e-15
2.41134971e-15
2.01932597e-15
1.69534718e-15
1.42755478e-15
1.20613805e-15
1.02288023e-15
8.70858985e-16
7.44261144e-16
6.3816154e-16
5.48363165e-16
4.73199342e-16
4.09683197e-16
3.55637872e-16
3.09414225e-16
2.69710743e-16
2.35474107e-16
2.05844295e-16
1.80116034e-16
1.5770908e-16
1.38145213e-16
1.21029919e-16
1.06037774e-16
9.29004339e-17
8.13961205e-17
7.13395836e-17
6.25718958e-17
5.49478501e-17
4.82952897e-17
4.26379847e-17
3.77498163e-17
3.35335212e-17
2.98925843e-17
2.67401409e-17
2.4000016e-17
2.16066312e-17
1.95046321e-17
1.7648669e-17
1.60038355e-17
1.45480811e-17
1.32794296e-17
1.22355406e-17
1.15432045e-17
1.86582706e-16
4.67823152e-16
7.81494352e-16
1.16765247e-15
1.78006999e-15
5.55451361e-15
1.40413617e-14
2.69595557e-14
4.30028545e-14
6.06774372e-14
7.86650809e-14
9.66468673e-14
1.14432006e-13
1.31598367e-13
1.47443422e-13
1.61271162e-13
1.72542188e-13
1.80983715e-13
1.86849389e-13
1.90700869e-13
1.9299557e-13
1.93870139e-13
1.9321577e-13
1.90866396e-13
1.86726938e-13
1.80928514e-13
1.73987145e-13
1.67001482e-13
1.61131268e-13
1.56991499e-13
1.54392417e-13
1.52571068e-13
1.50578261e-13
1.4769998e-13
1.43809052e-13
1.39829831e-13
1.37819033e-13
1.3996577e-13
1.47281815e-13
1.58911501e-13
1.72568178e-13
1.8541671e-13
1.95251938e-13
2.01269831e-13
2.04962478e-13
2.10258294e-13
2.22308075e-13
2.44745923e-13
2.77534162e-13
3.16781774e-13
3.5642656e-13
3.90734026e-13
4.1653197e-13
4.34810061e-13
4.51548213e-13
4.76825439e-13
5.21232128e-13
5.91100774e-13
6.85443633e-13
7.96545326e-13
9.13737405e-13
1.02867685e-12
1.13929428e-12
1.25017663e-12
1.36869536e-12
1.5003547e-12
1.64665076e-12
1.80542451e-12
1.97570004e-12
2.16346018e-12
2.38874422e-12
2.68670471e-12
3.10080834e-12
3.66979736e-12
4.41089607e-12
5.31237072e-12
6.32623552e-12
7.39221946e-12
8.45220198e-12
9.47188208e-12
1.04525645e-11
1.14443191e-11
1.25498355e-11
1.39163315e-11
1.57150549e-11
1.81055936e-11
2.11970131e-11
2.50144272e-11
2.94917664e-11
3.44943948e-11
3.9856162e-11
4.54277676e-11
5.11158113e-11
5.69114498e-11
6.29049462e-11
6.92880683e-11
7.63475883e-11
8.44542693e-11
9.40424868e-11
1.05594087e-10
1.19591275e-10
1.36491868e-10
1.56711087e-10
1.80613745e-10
2.08471198e-10
2.40564171e-10
2.77203797e-10
3.18770044e-10
3.65791185e-10
4.18823104e-10
4.78473968e-10
5.45630608e-10
6.21571921e-10
7.08072795e-10
8.07539949e-10
9.23166516e-10
1.0595204e-09
1.22300624e-09
1.42233942e-09
1.66916354e-09
1.98020474e-09
2.37966853e-09
2.90232483e-09
3.59587716e-09
4.5232046e-09
5.7534749e-09
7.34716714e-09
9.33407849e-09
1.17099011e-08
1.44444476e-08
1.74976435e-08
2.08354926e-08
2.44457712e-08
2.83505038e-08
3.26139202e-08
3.73461317e-08
4.26888539e-08
4.88183355e-08
5.58271258e-08
6.37978797e-08
7.24622194e-08
8.01870104e-08
8.32393357e-08
7.82097413e-08
6.76447983e-08
5.56725851e-08
4.43269583e-08
3.45403452e-08
2.63042695e-08
2.02287046e-08
1.58924686e-08
1.27739239e-08
1.04796756e-08
8.77744594e-09
7.49286572e-09
6.49828391e-09
5.7028811e-09
5.04420283e-09
4.48031754e-09
3.9837821e-09
3.53718327e-09
3.13000535e-09
2.75626605e-09
2.41283549e-09
2.09823875e-09
1.81181071e-09
1.55314119e-09
1.32171594e-09
1.11671704e-09
9.36959213e-10
7.80908002e-10
6.46747373e-10
5.32470938e-10
4.35981117e-10
3.55170999e-10
2.88002358e-10
2.32556793e-10
1.87078054e-10
1.49988517e-10
1.19897189e-10
9.55968884e-11
7.60538441e-11
6.03934172e-11
4.78842193e-11
3.79203757e-11
3.000272e-11
2.3722448e-11
1.87483365e-11
1.4814748e-11
1.17082688e-11
9.25495733e-12
7.31850992e-12
5.78915753e-12
4.58374652e-12
3.63351764e-12
2.88216232e-12
2.28631394e-12
1.8145678e-12
1.44250198e-12
1.14776401e-12
9.13698895e-13
7.26657947e-13
5.78426004e-13
4.61111044e-13
3.67867966e-13
2.93664374e-13
2.34232884e-13
1.87487628e-13
1.50415233e-13
1.20764832e-13
9.69377845e-14
7.7760684e-14
6.25092913e-14
5.02811665e-14
4.04648018e-14
3.25457347e-14
2.61831366e-14
2.10817695e-14
1.69910129e-14
1.3752084e-14
1.11525608e-14
9.07730233e-15
7.42399432e-15
6.09743038e-15
5.0274794e-15
4.16074554e-15
3.45595192e-15
2.87965832e-15
2.40553572e-15
2.01412856e-15
1.690705e-15
1.42342255e-15
1.20247587e-15
1.01964766e-15
8.68016655e-16
7.41773064e-16
6.35997561e-16
5.46411724e-16
4.71553585e-16
4.08267025e-16
3.54409767e-16
3.08347313e-16
2.68783494e-16
2.3466772e-16
2.05142254e-16
1.79504012e-16
1.57174798e-16
1.37678239e-16
1.20621443e-16
1.05680378e-16
9.25878679e-17
8.11230825e-17
7.11015219e-17
6.23648762e-17
5.47685295e-17
4.81530869e-17
4.25074084e-17
3.76354646e-17
3.34345238e-17
2.98070545e-17
2.66661452e-17
2.3935786e-17
2.15506197e-17
1.94555187e-17
1.76053472e-17
1.59653914e-17
1.45137568e-17
1.32485654e-17
1.22074624e-17
1.15169127e-17
7.5535947e-15
1.33565506e-14
1.78679886e-14
2.24123857e-14
3.40853283e-14
1.93131243e-13
4.21682603e-13
6.2821974e-13
7.70315791e-13
8.43851042e-13
8.64246635e-13
8.72829895e-13
8.77480258e-13
8.68362572e-13
8.37853726e-13
7.8639212e-13
7.19717757e-13
6.46573557e-13
5.81430288e-13
5.32495685e-13
4.95667123e-13
4.62099862e-13
4.25585976e-13
3.84410212e-13
3.40452148e-13
2.98080958e-13
2.6555506e-13
2.54186636e-13
2.65417904e-13
2.89124957e-13
3.11438696e-13
3.22406569e-13
3.18739488e-13
3.03405415e-13
2.84853105e-13
2.78503658e-13
3.01696456e-13
3.59004841e-13
4.37445597e-13
5.14702104e-13
5.71375351e-13
5.9792886e-13
5.96796967e-13
5.80680351e-13
5.72859438e-13
6.03136553e-13
6.91788556e-13
8.33983246e-13
1.00106522e-12
1.15588196e-12
1.26959154e-12
1.33145619e-12
1.35099181e-12
1.35655849e-12
1.39243799e-12
1.50642046e-12
1.72655506e-12
2.04423837e-12
2.41759705e-12
2.79218958e-12
3.12590945e-12
3.40733107e-12
3.65838629e-12
3.91736048e-12
4.21301796e-12
4.55031069e-12
4.91409687e-12
5.28398466e-12
5.65737341e-12
6.0675257e-12
6.59801835e-12
7.36483059e-12
8.47529275e-12
9.98017566e-12
1.18332228e-11
1.39048149e-11
1.60163062e-11
1.80053278e-11
1.97698144e-11
2.13001098e-11
2.26879202e-11
2.41269303e-11
2.58995355e-11
2.83386707e-11
3.17593086e-11
3.63784468e-11
4.22448754e-11
4.92147966e-11
5.69899278e-11
6.52048582e-11
7.35245131e-11
8.1726835e-11
8.97480574e-11
9.76990004e-11
1.05855592e-10
1.14635434e-10
1.24568206e-10
1.36265027e-10
1.50379244e-10
1.67574157e-10
1.88447901e-10
2.13513365e-10
2.43190944e-10
2.77805652e-10
3.17532408e-10
3.62599829e-10
4.13341395e-10
4.70242134e-10
5.33909104e-10
6.05021961e-10
6.84272709e-10
7.72838304e-10
8.72493459e-10
9.85647763e-10
1.11553083e-09
1.26632817e-09
1.44418668e-09
1.65759181e-09
1.91775494e-09
2.23894911e-09
2.6415864e-09
3.15406662e-09
3.81518651e-09
4.67452291e-09
5.7957869e-09
7.24366561e-09
9.07082805e-09
1.12932227e-08
1.38975704e-08
1.68514753e-08
2.01174025e-08
2.36666025e-08
2.74941517e-08
3.16305919e-08
3.6148868e-08
4.11644448e-08
4.68003447e-08
5.31881704e-08
6.03907611e-08
6.83377062e-08
7.62047971e-08
8.19109855e-08
8.19184015e-08
7.48408538e-08
6.40102729e-08
5.24764076e-08
4.17837601e-08
3.26801746e-08
2.52331476e-08
1.94965085e-08
1.54035636e-08
1.24320958e-08
1.02182845e-08
8.57480083e-09
7.33147491e-09
6.36460438e-09
5.58776767e-09
4.94203771e-09
4.38790389e-09
3.89944448e-09
3.46014281e-09
3.05993041e-09
2.69302511e-09
2.35633232e-09
2.04832119e-09
1.76823133e-09
1.51554558e-09
1.28965996e-09
1.08969222e-09
9.14420668e-10
7.62301495e-10
6.31532501e-10
5.20138888e-10
4.2606699e-10
3.47259762e-10
2.81731538e-10
2.2761653e-10
1.83207375e-10
1.46970685e-10
1.17554434e-10
9.37850461e-11
7.4657241e-11
5.93200095e-11
4.70611071e-11
3.72901716e-11
2.95208305e-11
2.33545828e-11
1.84679388e-11
1.46009022e-11
1.15448654e-11
9.13059269e-12
7.22353937e-12
5.71696657e-12
4.52842168e-12
3.59081942e-12
2.84943699e-12
2.26169935e-12
1.7959166e-12
1.42802896e-12
1.13639017e-12
9.05075902e-13
7.20367824e-13
5.73701169e-13
4.57382227e-13
3.64916734e-13
2.91467257e-13
2.32654226e-13
1.86310339e-13
1.49463639e-13
1.19993712e-13
9.63726139e-14
7.73602151e-14
6.22095019e-14
5.00403116e-14
4.02767967e-14
3.24135661e-14
2.60923617e-14
2.1022073e-14
1.69497885e-14
1.37106241e-14
1.11211765e-14
9.05338155e-15
7.40391669e-15
6.07997824e-15
5.01258362e-15
4.14811265e-15
3.44491738e-15
2.86973526e-15
2.39660062e-15
2.0061545e-15
1.68362021e-15
1.41713526e-15
1.1969101e-15
1.01474184e-15
8.63711503e-16
7.38010239e-16
6.32726794e-16
5.43458143e-16
4.69073944e-16
4.06131003e-16
3.52556132e-16
3.0673662e-16
2.67383539e-16
2.334502e-16
2.04082256e-16
1.78579916e-16
1.56368084e-16
1.36973175e-16
1.20004732e-16
1.05140818e-16
9.21160118e-17
8.07109127e-17
7.07421553e-17
6.20523648e-17
5.44982634e-17
4.79345701e-17
4.23091266e-17
3.74625901e-17
3.32849635e-17
2.96778435e-17
2.65543462e-17
2.38387246e-17
2.14659595e-17
1.9381273e-17
1.75398538e-17
1.590727e-17
1.44618606e-17
1.32018976e-17
1.21650072e-17
1.14772001e-17
2.98373656e-13
2.56198135e-13
2.18847271e-13
2.27493999e-13
4.8079466e-13
5.64896701e-12
8.28378008e-12
8.04948544e-12
6.52628071e-12
4.82947087e-12
3.49670488e-12
3.21335021e-12
3.12144983e-12
2.77765422e-12
2.23251275e-12
1.66048857e-12
1.17947345e-12
8.5554741e-13
8.16820407e-13
9.5904333e-13
1.05731326e-12
1.01825577e-12
8.73353976e-13
6.90502704e-13
5.26032355e-13
4.24298714e-13
4.57838349e-13
6.94764595e-13
1.01555071e-12
1.25354803e-12
1.33053975e-12
1.26344058e-12
1.11488621e-12
9.56893108e-13
8.68101686e-13
9.62170216e-13
1.31191754e-12
1.81894418e-12
2.29023109e-12
2.5767686e-12
2.63666015e-12
2.51610398e-12
2.31049428e-12
2.13758882e-12
2.14656448e-12
2.48240489e-12
3.15013449e-12
3.97447025e-12
4.71161823e-12
5.18390618e-12
5.34074178e-12
5.24686049e-12
5.04408457e-12
4.92371089e-12
5.10698597e-12
5.75859996e-12
6.86658325e-12
8.2271752e-12
9.55485039e-12
1.06231048e-11
1.13543487e-11
1.18379004e-11
1.22703365e-11
1.28226455e-11
1.3546461e-11
1.43711348e-11
1.51801128e-11
1.59001642e-11
1.65713358e-11
1.73762833e-11
1.86302253e-11
2.06824335e-11
2.3741945e-11
2.77310941e-11
3.22672618e-11
3.68182261e-11
4.08854739e-11
4.41635943e-11
4.66028897e-11
4.84075932e-11
4.99955253e-11
5.19582534e-11
5.49927032e-11
5.97819769e-11
6.68185662e-11
7.62495777e-11
8.77907079e-11
1.00788347e-10
1.14408206e-10
1.27868395e-10
1.40629073e-10
1.52491578e-10
1.63604794e-10
1.74422582e-10
1.85633808e-10
1.98092943e-10
2.127509e-10
2.3060054e-10
2.52608361e-10
2.79651985e-10
3.12431192e-10
3.51449019e-10
3.97048672e-10
4.49420041e-10
5.08508888e-10
5.74458235e-10
6.47691609e-10
7.28856078e-10
8.18750226e-10
9.18224046e-10
1.02802474e-09
1.14991367e-09
1.28653767e-09
1.44133416e-09
1.61885873e-09
1.82479365e-09
2.06791636e-09
2.35995621e-09
2.7158089e-09
3.15306408e-09
3.69725649e-09
4.381751e-09
5.24915692e-09
6.34828398e-09
7.74284569e-09
9.48952726e-09
1.1631706e-08
1.41653555e-08
1.70684949e-08
2.0308795e-08
2.3853775e-08
2.76808252e-08
3.17939835e-08
3.6233775e-08
4.10818459e-08
4.64539841e-08
5.24198859e-08
5.91232818e-08
6.64309419e-08
7.38409145e-08
7.99867394e-08
8.24423698e-08
7.88218651e-08
7.011613e-08
5.93589593e-08
4.84893997e-08
3.86586421e-08
3.04015407e-08
2.37410973e-08
1.85892263e-08
1.4792449e-08
1.19962263e-08
9.87804092e-09
8.31167491e-09
7.12136443e-09
6.18966111e-09
5.43653443e-09
4.80757977e-09
4.26628578e-09
3.7885875e-09
3.3590564e-09
2.96816982e-09
2.61037659e-09
2.28262057e-09
1.98330005e-09
1.71153673e-09
1.46668458e-09
1.24802961e-09
1.05461377e-09
8.85174396e-10
7.38160431e-10
6.11791166e-10
5.04135222e-10
4.13197427e-10
3.36986174e-10
2.73584198e-10
2.21194494e-10
1.78172774e-10
1.43042949e-10
1.14503326e-10
9.14237043e-11
7.28357273e-11
5.79190999e-11
4.59862613e-11
3.64666455e-11
2.88904661e-11
2.28729894e-11
1.81008932e-11
1.4321035e-11
1.13306723e-11
8.9667073e-12
7.09886262e-12
5.62251166e-12
4.45611177e-12
3.53463513e-12
2.80610957e-12
2.2293273e-12
1.77170398e-12
1.40918347e-12
1.12135647e-12
8.93548718e-13
7.12138636e-13
5.6765915e-13
4.52558843e-13
3.60987703e-13
2.8850299e-13
2.30615335e-13
1.84827001e-13
1.48235193e-13
1.1896392e-13
9.56149282e-14
7.6850937e-14
6.18333876e-14
4.97280075e-14
4.00238847e-14
3.22371569e-14
2.59777557e-14
2.09417908e-14
1.68855325e-14
1.36547707e-14
1.10799972e-14
9.02297395e-15
7.377959e-15
6.05664891e-15
4.9924035e-15
4.13109286e-15
3.43009329e-15
2.85631525e-15
2.38445006e-15
1.99532385e-15
1.67403961e-15
1.40866588e-15
1.18943578e-15
1.00817498e-15
8.5796704e-16
7.33001713e-16
6.28381753e-16
5.39514248e-16
4.65795505e-16
4.03301275e-16
3.50098186e-16
3.04600303e-16
2.65526552e-16
2.31835079e-16
2.02675986e-16
1.77353856e-16
1.55297716e-16
1.36037676e-16
1.19186494e-16
1.04424989e-16
9.14900575e-17
8.01641868e-17
7.02655099e-17
6.16378789e-17
5.41395891e-17
4.76332237e-17
4.20446648e-17
3.72329626e-17
3.30864434e-17
2.95063301e-17
2.64059147e-17
2.37098241e-17
2.13534934e-17
1.92826154e-17
1.74528105e-17
1.58300126e-17
1.43928665e-17
1.3139845e-17
1.21085514e-17
1.14244001e-17
9.48268785e-12
2.12565143e-12
1.57902348e-12
2.40761116e-12
8.4847746e-12
1.34799555e-10
1.03458841e-10
5.37152168e-11
2.38370254e-11
1.01873342e-11
6.18659515e-12
1.64373014e-11
1.7685176e-11
1.28168736e-11
7.57554884e-12
4.03115317e-12
2.15972248e-12
1.7276506e-12
3.86519438e-12
6.04293817e-12
6.19305955e-12
4.94369537e-12
3.41275812e-12
2.19925407e-12
1.47591432e-12
1.35110773e-12
2.30426776e-12
4.58387322e-12
6.51095505e-12
7.09077357e-12
6.50961028e-12
5.38342195e-12
4.23711696e-12
3.42090062e-12
3.27243566e-12
4.37493154e-12
6.78600465e-12
9.3409019e-12
1.08975992e-11
1.1108893e-11
1.02874499e-11
8.98605494e-12
7.74472647e-12
7.05413672e-12
7.49445351e-12
9.48523447e-12
1.2532419e-11
1.54692343e-11
1.73166332e-11
1.77540116e-11
1.70456403e-11
1.57552748e-11
1.45337421e-11
1.40533376e-11
1.49732667e-11
1.75469084e-11
2.12526568e-11
2.50561412e-11
2.8017957e-11
2.97139807e-11
3.03123047e-11
3.04212842e-11
3.07335854e-11
3.16201896e-11
3.29727241e-11
3.43908359e-11
3.55191649e-11
3.62743987e-11
3.69323937e-11
3.8101522e-11
4.06045648e-11
4.51392429e-11
5.18314877e-11
6.00235951e-11
6.84972663e-11
7.60120084e-11
8.17306402e-11
8.54122211e-11
8.73796165e-11
8.83772008e-11
8.94274191e-11
9.17425575e-11
9.65669291e-11
1.04928109e-10
1.17313486e-10
1.33462683e-10
1.52361723e-10
1.72519045e-10
1.92407328e-10
2.10867102e-10
2.27339377e-10
2.41897161e-10
2.55142397e-10
2.68059679e-10
2.81877071e-10
2.97958965e-10
3.17691489e-10
3.42426957e-10
3.733745e-10
4.11526185e-10
4.57568417e-10
5.11868864e-10
5.7460033e-10
6.45743573e-10
7.24888864e-10
8.12142178e-10
9.08123032e-10
1.01369845e-09
1.1298623e-09
1.25760283e-09
1.39759883e-09
1.55243923e-09
1.7257487e-09
1.92199139e-09
2.14708591e-09
2.40807333e-09
2.71660121e-09
3.08753798e-09
3.53905114e-09
4.09078162e-09
4.77264816e-09
5.62083312e-09
6.67898812e-09
7.99124875e-09
9.62187088e-09
1.16190549e-08
1.40213409e-08
1.68049479e-08
1.99454356e-08
2.34134985e-08
2.71816027e-08
3.12307643e-08
3.55712598e-08
4.02496437e-08
4.53491786e-08
5.0972142e-08
5.71522865e-08
6.39782441e-08
7.10679226e-08
7.75332492e-08
8.16166633e-08
8.12162921e-08
7.54862051e-08
6.62588836e-08
5.57763914e-08
4.55020033e-08
3.6355446e-08
2.87264656e-08
2.25936521e-08
1.78347735e-08
1.42787405e-08
1.16315926e-08
9.60647553e-09
8.10271138e-09
6.95373882e-09
6.04927009e-09
5.31463848e-09
4.69901831e-09
4.16812738e-09
3.69926419e-09
3.27779195e-09
2.89459023e-09
2.54426598e-09
2.22378846e-09
1.93150223e-09
1.66644159e-09
1.42786768e-09
1.21498708e-09
1.02678887e-09
8.61984085e-10
7.19020744e-10
5.96138656e-10
4.9144322e-10
4.02987022e-10
3.28830882e-10
2.67112924e-10
2.16090123e-10
1.74168162e-10
1.39916236e-10
1.12072451e-10
8.95408175e-11
7.13819804e-11
5.6799869e-11
4.51266751e-11
3.58076547e-11
2.83858431e-11
2.24870148e-11
1.78061261e-11
1.40961089e-11
1.11588326e-11
8.83529602e-12
6.9984776e-12
5.54602464e-12
4.39768869e-12
3.48975274e-12
2.77152536e-12
2.20300353e-12
1.75172595e-12
1.3938804e-12
1.10953559e-12
8.84448395e-13
7.05344618e-13
5.6253298e-13
4.48633279e-13
3.57956293e-13
2.86179099e-13
2.28901608e-13
1.8353976e-13
1.4724137e-13
1.18184818e-13
9.50220635e-14
7.64159295e-14
6.15060137e-14
4.94792521e-14
3.98344892e-14
3.20978567e-14
2.58771382e-14
2.08684358e-14
1.68310128e-14
1.36117458e-14
1.10466511e-14
8.99655031e-15
7.35562455e-15
6.03739416e-15
4.97578241e-15
4.11665586e-15
3.4173356e-15
2.84488401e-15
2.37421979e-15
1.98623226e-15
1.66600529e-15
1.40159682e-15
1.18324025e-15
1.00276314e-15
8.53251322e-16
7.28901426e-16
6.24835678e-16
5.36260086e-16
4.63137274e-16
4.00998022e-16
3.48095233e-16
3.0285886e-16
2.64012486e-16
2.30517913e-16
2.01528914e-16
1.76353651e-16
1.54424484e-16
1.35274498e-16
1.18519051e-16
1.03841193e-16
9.09796895e-17
7.97185453e-17
6.98770996e-17
6.13001856e-17
5.38472641e-17
4.73839171e-17
4.18282796e-17
3.70455749e-17
3.29244951e-17
2.93663599e-17
2.62847049e-17
2.36044933e-17
2.12615344e-17
1.92018965e-17
1.73815506e-17
1.5766734e-17
1.43363385e-17
1.30889919e-17
1.20622761e-17
1.13811152e-17
1.44899489e-10
1.85097642e-10
1.88807173e-10
1.81511411e-10
1.71240505e-10
1.60464584e-10
1.49999513e-10
1.4020959e-10
1.31173256e-10
1.23009099e-10
1.15762069e-10
1.09388887e-10
1.03798618e-10
9.89022422e-11
9.46231561e-11
9.0889137e-11
8.7623778e-11
8.47568067e-11
8.22367655e-11
8.00210564e-11
7.80664689e-11
7.6335717e-11
7.48017345e-11
7.34416998e-11
7.22322936e-11
7.11536282e-11
7.01908815e-11
6.9330734e-11
6.85622682e-11
6.78753468e-11
6.72607616e-11
6.67105795e-11
6.62202164e-11
6.57854166e-11
6.54039867e-11
6.50777142e-11
6.48137961e-11
6.46605702e-11
6.53928382e-11
9.24193771e-11
8.18743522e-11
1.30047964e-10
1.53015471e-10
1.62764669e-10
1.65403669e-10
1.64088715e-10
1.60216028e-10
1.54651342e-10
1.47999861e-10
1.40895983e-10
1.33816245e-10
1.27010574e-10
1.20607156e-10
1.14692237e-10
1.09302136e-10
1.04430335e-10
1.00047546e-10
9.61145488e-11
9.25913567e-11
8.9440161e-11
8.66233124e-11
8.41025408e-11
8.18452597e-11
7.98246132e-11
7.80152537e-11
7.63919904e-11
7.49347437e-11
7.36260228e-11
7.24504044e-11
7.13945734e-11
7.04464245e-11
6.95940693e-11
6.88298698e-11
6.81475164e-11
6.75425945e-11
6.70145113e-11
6.6570467e-11
6.62216274e-11
6.61093717e-11
6.92699313e-11
4.86465259e-11
8.79909346e-11
1.14270927e-10
1.3087441e-10
1.40801871e-10
1.46249248e-10
1.48581453e-10
1.48572084e-10
1.46760665e-10
1.43647875e-10
1.39657064e-10
1.35103665e-10
1.30237108e-10
1.25271182e-10
1.20360191e-10
1.15602294e-10
1.11062357e-10
1.06786827e-10
1.0279612e-10
9.90933453e-11
9.5677743e-11
9.25431257e-11
8.96736175e-11
8.70516517e-11
8.46622944e-11
8.24893693e-11
8.05159733e-11
7.87246116e-11
7.70983849e-11
7.56230423e-11
7.42872147e-11
7.30788161e-11
7.19867243e-11
7.10013822e-11
7.01155421e-11
6.93226556e-11
6.86208833e-11
6.80035214e-11
6.74794452e-11
6.72731985e-11
4.06986847e-11
7.34548403e-11
9.80307662e-11
1.15459304e-10
1.2722822e-10
1.34722053e-10
1.39052055e-10
1.41015886e-10
1.41184832e-10
1.39988831e-10
1.37768696e-10
1.34794113e-10
1.31281694e-10
1.27417977e-10
1.23357718e-10
1.1922039e-10
1.15098516e-10
1.11066945e-10
1.07179151e-10
1.03469969e-10
9.99634809e-11
9.66748571e-11
9.36088007e-11
9.07639768e-11
8.81352495e-11
8.57160166e-11
8.34966626e-11