/*--------------------------------*- C++ -*----------------------------------*\
  =========                 |
  \\      /  F ield         | OpenFOAM: The Open Source CFD Toolbox
   \\    /   O peration     | Website:  https://openfoam.org
    \\  /    A nd           | Version:  6
     \\/     M anipulation  |
\*---------------------------------------------------------------------------*/
FoamFile
{
    version     2.0;
    format      ascii;
    class       volScalarField;
    location    "25000";
    object      N2;
}
// * * * * * * * * * * * * * * * * * * * * * * * * * * * * * * * * * * * * * //

dimensions      [0 0 0 0 0 0 0];

internalField   nonuniform List<scalar> 
44870
(
0.6473
0.6473
0.6473
0.6473
0.6473
0.6473
0.6473
0.6473
0.6473
0.6473
0.6473
0.6473
0.6473
0.6473
0.6473
0.6473
0.6473
0.6473
0.6473
0.6473
0.6473
0.6473
0.6473
0.6473
0.6473
0.6473
0.6473
0.6473
0.6473
0.6473
0.6473
0.6473
0.6473
0.6473
0.6473
0.6473
0.6473
0.6473
0.6473
0.6473
0.6473
0.6473
0.6473
0.6473
0.6473
0.6473
0.6473
0.6473
0.6473
0.6473
0.6473
0.6473
0.6473
0.6473
0.6473
0.6473
0.6473
0.6473
0.6473
0.6473
0.6473
0.6473
0.6473
0.6473
0.6473
0.6473
0.6473
0.6473
0.6473
0.6473
0.6473
0.6473
0.6473
0.6473
0.6473
0.6473
0.6473
0.6473
0.6473
0.647300001
0.6473
0.6473
0.6473
0.6473
0.6473
0.6473
0.6473
0.6473
0.6473
0.6473
0.6473
0.6473
0.6473
0.6473
0.6473
0.6473
0.6473
0.6473
0.6473
0.6473
0.6473
0.6473
0.6473
0.6473
0.6473
0.6473
0.6473
0.6473
0.6473
0.6473
0.6473
0.6473
0.6473
0.6473
0.6473
0.6473
0.6473
0.6473
0.6473
0.647300016
0.6473
0.6473
0.6473
0.6473
0.6473
0.6473
0.6473
0.6473
0.6473
0.6473
0.6473
0.6473
0.6473
0.6473
0.6473
0.6473
0.6473
0.6473
0.6473
0.6473
0.6473
0.6473
0.6473
0.6473
0.6473
0.6473
0.6473
0.6473
0.6473
0.6473
0.6473
0.6473
0.6473
0.6473
0.6473
0.6473
0.6473
0.6473
0.647300002
0.64730039
0.6473
0.6473
0.6473
0.6473
0.6473
0.6473
0.6473
0.6473
0.6473
0.6473
0.6473
0.6473
0.6473
0.6473
0.6473
0.6473
0.6473
0.6473
0.6473
0.6473
0.6473
0.6473
0.6473
0.6473
0.6473
0.6473
0.6473
0.6473
0.6473
0.6473
0.6473
0.6473
0.6473
0.6473
0.6473
0.6473
0.6473
0.6473
0.647300028
0.647306032
0.647300001
0.647300005
0.647300012
0.647300026
0.64730005
0.64730009
0.647300152
0.647300244
0.647300377
0.647300564
0.64730082
0.647301165
0.647301619
0.647302211
0.647302972
0.647303939
0.647305156
0.647306671
0.64730855
0.647310856
0.647313674
0.647317096
0.647321232
0.647326211
0.647332181
0.647339322
0.64734781
0.647357931
0.64736988
0.647384048
0.647400747
0.647420403
0.647443499
0.647470484
0.647502021
0.647538626
0.647581115
0.647630116
0.647686558
0.64775125
0.647825256
0.647909645
0.648005607
0.648114135
0.648236936
0.648374873
0.648529027
0.648700434
0.648890108
0.649099079
0.649328358
0.649578993
0.649851949
0.650148164
0.650468376
0.650813163
0.65118277
0.651577172
0.651996012
0.65243869
0.652904419
0.653392261
0.653901287
0.654430507
0.654979211
0.655546714
0.656132816
0.656737332
0.657360473
0.658002169
0.658662316
0.659340376
0.660035275
0.660745998
0.661470549
0.662208603
0.662956414
0.663713884
0.664479873
0.665253637
0.666034517
0.666821999
0.667615801
0.668415608
0.66922114
0.670031922
0.67084764
0.671667572
0.672491049
0.673317392
0.674145778
0.674975459
0.675805567
0.676635278
0.677463841
0.678290606
0.67911503
0.679936727
0.680755434
0.681571175
0.682383685
0.683193127
0.683999393
0.684802393
0.685601876
0.686397704
0.687189722
0.687977613
0.688761322
0.689540708
0.690315793
0.691086579
0.691853063
0.69261538
0.693373694
0.694128186
0.694879075
0.695626623
0.69637116
0.697113111
0.697853029
0.698591639
0.699329863
0.700068825
0.700809657
0.701553646
0.702301883
0.703055257
0.703814214
0.704578977
0.705349556
0.706125685
0.706906939
0.707692831
0.708482813
0.709276318
0.710072826
0.710871778
0.711672632
0.712474931
0.713278219
0.714082
0.714885683
0.715688466
0.716489282
0.717286807
0.718079948
0.718867713
0.71964953
0.720425169
0.721194125
0.721956064
0.722710712
0.723457764
0.724197
0.724928534
0.725652607
0.726368992
0.727077319
0.727777433
0.728469193
0.729152454
0.729827067
0.73049288
0.731149743
0.731797503
0.732436017
0.733065146
0.733684765
0.734294762
0.734895061
0.735485654
0.736066722
0.736638664
0.737199147
0.737749227
0.738289498
0.738819785
0.739340091
0.73985043
0.740350838
0.740841368
0.741322098
0.741793109
0.742254473
0.742706287
0.743148719
0.743581968
0.744006143
0.744421325
0.744827788
0.745225955
0.745616174
0.745998137
0.74637185
0.746737998
0.747097587
0.747449879
0.747793833
0.748129513
0.748457694
0.748780027
0.749094928
0.749401915
0.749701315
0.749993633
0.750281106
0.750560102
0.750830519
0.751093622
0.751350345
0.75160108
0.751843295
0.752078036
0.752305472
0.752527237
0.752742471
0.752950113
0.753152274
0.753350389
0.753545065
0.753736038
0.753922893
0.754105906
0.754284798
0.75445919
0.754628503
0.754792635
0.754952255
0.75510838
0.755262129
0.755414645
0.755566963
0.755719818
0.755873562
0.756028202
0.756183558
0.756339229
0.756494855
0.756648955
0.756801537
0.756951886
0.757099383
0.757243521
0.757383909
0.757520284
0.757652518
0.757780653
0.757904929
0.758025819
0.758144055
0.758260629
0.758376727
0.758493587
0.758612259
0.75873363
0.758856745
0.758980651
0.759104597
0.759226762
0.759345476
0.759459335
0.759567313
0.759668777
0.759763415
0.759851067
0.759931415
0.760003375
0.760063756
0.760104168
0.647300023
0.647300083
0.647300188
0.647300366
0.647300653
0.647301094
0.64730174
0.647302655
0.647303911
0.647305598
0.647307815
0.647310688
0.647314343
0.647318946
0.647324668
0.647331702
0.647340278
0.64735062
0.64736302
0.647377735
0.647395095
0.647415425
0.647439066
0.647466443
0.647497879
0.647533893
0.647574827
0.647621289
0.647673585
0.64773232
0.64779788
0.647870747
0.647951266
0.648039784
0.648136612
0.648241978
0.648356203
0.648479447
0.648612085
0.648754271
0.648906408
0.649068637
0.649241266
0.649424066
0.649617961
0.649822672
0.650038395
0.650265425
0.650504154
0.65075508
0.651018769
0.651295876
0.651587095
0.65189318
0.6522149
0.652553056
0.652908401
0.653281637
0.653673329
0.654083896
0.654513562
0.65496239
0.65543028
0.655917055
0.656422548
0.656946517
0.657488991
0.65804996
0.658629596
0.659227861
0.659844647
0.6604795
0.661131585
0.661800016
0.66248323
0.663180818
0.66388967
0.66460962
0.665339605
0.666078916
0.666826799
0.667582722
0.668346333
0.669117219
0.669894985
0.670679119
0.671469183
0.672264467
0.673064247
0.673867844
0.674674399
0.675483092
0.676293075
0.677103523
0.677913672
0.678722854
0.679530501
0.680336197
0.681139646
0.68194085
0.682739486
0.683535671
0.684329265
0.685120143
0.685908027
0.68669278
0.687474201
0.688251966
0.689026007
0.68979618
0.69056245
0.691324806
0.692083271
0.692837949
0.693588978
0.694336527
0.695080803
0.695822063
0.696560632
0.697296936
0.698031528
0.698765135
0.699498675
0.700233261
0.700969989
0.701710106
0.702454649
0.703204441
0.703959918
0.704721238
0.705488387
0.70626109
0.707038917
0.707821382
0.70860794
0.709398033
0.710191137
0.710986702
0.711784213
0.712583205
0.713383218
0.714183756
0.714984217
0.715783788
0.716581377
0.717375693
0.718165672
0.718950338
0.719729152
0.720501895
0.721268048
0.722027276
0.722779305
0.723523822
0.724260598
0.724989784
0.725711612
0.726425809
0.727132008
0.727830064
0.728519834
0.729201172
0.729873928
0.730537948
0.731193078
0.731839167
0.732476068
0.733103642
0.733721762
0.734330316
0.734929224
0.735518478
0.736098265
0.736669072
0.737228285
0.737777171
0.738316356
0.738845602
0.739364906
0.739874283
0.740373767
0.740863412
0.741343296
0.741813499
0.742274088
0.742725155
0.743166874
0.743599456
0.744022991
0.744437533
0.744843381
0.745240961
0.74563068
0.746012109
0.746385216
0.746750811
0.747109994
0.747461968
0.747805449
0.748140584
0.748468365
0.748790468
0.749105188
0.749411749
0.749710662
0.750002722
0.750290152
0.750568982
0.750838964
0.751101728
0.751358351
0.75160907
0.75185114
0.752085552
0.752312745
0.752534433
0.752749638
0.752957134
0.753159126
0.753357023
0.753551539
0.753742358
0.753929
0.754111793
0.754290519
0.754464784
0.754633991
0.754798038
0.754957614
0.755113737
0.755267504
0.755420035
0.755572351
0.755725182
0.755878873
0.75603343
0.756188688
0.756344251
0.756499725
0.756653651
0.756806065
0.756956256
0.757103604
0.757247605
0.757387874
0.757524146
0.757656296
0.757784365
0.757908591
0.758029446
0.758147657
0.758264211
0.758380288
0.758497118
0.758615746
0.758737093
0.758860021
0.758983825
0.759107629
0.759229639
0.759348195
0.759461902
0.759569738
0.759671075
0.759765602
0.759853159
0.759933429
0.760005325
0.760065657
0.760106034
0.647300869
0.647302725
0.647305532
0.647309863
0.647316201
0.647324993
0.647336699
0.647351834
0.647370888
0.647394407
0.647422863
0.64745677
0.64749653
0.647542596
0.647595315
0.647655046
0.647722089
0.647796651
0.647878939
0.647969023
0.648066995
0.648172862
0.648286613
0.648408229
0.64853761
0.648674801
0.648819561
0.648972062
0.64913157
0.649298052
0.649471105
0.649650335
0.649835288
0.650025622
0.650220986
0.650421216
0.650626214
0.650836006
0.651050725
0.651270411
0.651495231
0.651725157
0.651960367
0.652200508
0.652446565
0.652698226
0.652955696
0.65321924
0.653489161
0.653765805
0.654049527
0.654340777
0.654640056
0.654947962
0.655265172
0.655592447
0.655930589
0.656280421
0.65664273
0.657018233
0.65740755
0.657811218
0.658229646
0.65866329
0.659112414
0.659577302
0.660058408
0.660556042
0.661070536
0.66160207
0.662150715
0.662716287
0.663298377
0.663896442
0.66450958
0.665137423
0.665777998
0.666431137
0.667096058
0.667772159
0.66845881
0.669155507
0.669861815
0.670577272
0.671301375
0.672033601
0.672773356
0.673520014
0.674272802
0.675030948
0.675793635
0.676560021
0.677329255
0.678100513
0.678873039
0.679646143
0.680419232
0.681191859
0.681963672
0.682734615
0.683504312
0.684272775
0.685039809
0.685805229
0.686568714
0.687330111
0.68808914
0.688845488
0.689599028
0.690349615
0.691097134
0.691841578
0.692582956
0.693321325
0.694056787
0.694789487
0.695519612
0.696247402
0.696973178
0.697697364
0.698420517
0.699143363
0.69986681
0.700591942
0.701319786
0.702051502
0.702788018
0.703530026
0.704277909
0.705031739
0.705791423
0.706556674
0.707327047
0.70810206
0.708881177
0.709663845
0.710449546
0.711237762
0.712028001
0.712819796
0.713612679
0.714406155
0.715199593
0.715992147
0.716782702
0.717570037
0.718353146
0.719131062
0.719903327
0.720669775
0.721429818
0.722183133
0.722929449
0.723668433
0.724399838
0.725123893
0.725840838
0.726550243
0.727251792
0.72794535
0.728630773
0.729307912
0.729976609
0.730636709
0.731288054
0.731930489
0.732563864
0.733188037
0.733802878
0.734408274
0.73500414
0.735590465
0.736167447
0.736735789
0.737292212
0.737838481
0.738375286
0.738902251
0.739419358
0.739926627
0.740424088
0.740911794
0.741389821
0.74185825
0.742317141
0.74276658
0.743206739
0.74363783
0.744059944
0.744473113
0.744877626
0.745273924
0.745662429
0.74604269
0.746414629
0.746779097
0.747137212
0.747488253
0.747830831
0.748165113
0.74849206
0.748813301
0.749127345
0.749433258
0.74973151
0.750022962
0.750309824
0.750588091
0.750857497
0.751119855
0.751376096
0.751626401
0.751868103
0.752102113
0.752328977
0.752550343
0.752765257
0.752972229
0.753174103
0.753371738
0.753565816
0.753756199
0.75394242
0.754124813
0.754303183
0.754477121
0.754646067
0.754809941
0.754969428
0.755125532
0.755279319
0.755431873
0.755584185
0.755736962
0.755890534
0.756044905
0.756199943
0.756355284
0.756510412
0.756663959
0.756816008
0.756965853
0.757112874
0.757256578
0.757396584
0.757532631
0.757664597
0.757792521
0.757916637
0.758037412
0.758155568
0.758272077
0.758388108
0.758504871
0.758623392
0.758744846
0.758867187
0.758990791
0.759114287
0.759235957
0.759354167
0.759467539
0.759575064
0.759676123
0.759770407
0.759857757
0.759937854
0.76000961
0.760069837
0.76011014
0.647334941
0.647386533
0.647454675
0.647540315
0.647642922
0.647761998
0.647896658
0.648046039
0.64820892
0.648384146
0.648570284
0.648766041
0.648969848
0.64918059
0.649396881
0.64961785
0.649842242
0.650069102
0.65029766
0.650527169
0.650757249
0.650987466
0.65121785
0.651448191
0.65167881
0.651909664
0.652140926
0.652372941
0.652604607
0.652836503
0.653068643
0.653301072
0.653533985
0.653767682
0.654002517
0.654238871
0.654477037
0.654717328
0.654959907
0.655204835
0.655452177
0.655701928
0.655954209
0.656208731
0.656466266
0.656726427
0.656989275
0.657254944
0.657523642
0.657795617
0.658071186
0.658350758
0.658634792
0.658923847
0.659218525
0.65951951
0.659827514
0.660143279
0.660467536
0.660800946
0.66114416
0.66149775
0.661862288
0.662238319
0.662626372
0.663026991
0.663440798
0.663868324
0.664310092
0.664766498
0.665237844
0.665724252
0.666225718
0.66674209
0.667273042
0.667818377
0.668377207
0.668949468
0.669534724
0.670132532
0.670742561
0.671364371
0.671997494
0.672641514
0.673295895
0.67396016
0.674633684
0.675315823
0.676005864
0.676703034
0.677406549
0.678115592
0.678829327
0.679546965
0.680267774
0.68099106
0.681716222
0.682442819
0.683170433
0.683898859
0.684627779
0.685357063
0.686086454
0.686815693
0.687544442
0.688272451
0.688999414
0.689725041
0.690449103
0.691171441
0.691891925
0.692610487
0.693327107
0.694041806
0.694754647
0.695465741
0.696175249
0.696883396
0.697590493
0.698296962
0.69900336
0.699710411
0.700418996
0.70113015
0.701844805
0.702563992
0.703288494
0.704018844
0.704755308
0.70549789
0.706246382
0.707000464
0.707759683
0.708523548
0.709291535
0.710063107
0.710837761
0.711615012
0.712394386
0.713175416
0.713957628
0.714740526
0.715523432
0.716305451
0.717085476
0.717862364
0.718635205
0.71940304
0.720165491
0.720922556
0.721673455
0.722417916
0.723155677
0.723886365
0.724609708
0.725326069
0.726035714
0.726737904
0.727432464
0.728119267
0.728798161
0.729468988
0.730131587
0.730785794
0.731431447
0.732068386
0.732696456
0.733315513
0.733925421
0.734526062
0.735117349
0.735699262
0.736272013
0.736836703
0.737387915
0.737931211
0.738464417
0.738987935
0.739501729
0.740005817
0.740500228
0.740985008
0.741460229
0.741925974
0.742382304
0.742829295
0.743267093
0.743695907
0.74411586
0.744526987
0.744929482
0.745323817
0.745710404
0.7460889
0.746459252
0.746822066
0.747178377
0.747527808
0.74786916
0.748202556
0.748528211
0.748847802
0.749160538
0.749465777
0.749763483
0.750053897
0.750339471
0.750616645
0.750885574
0.751147674
0.751403145
0.751652479
0.751893527
0.752127287
0.752353865
0.752574574
0.752788805
0.752995666
0.753197192
0.753394215
0.753587557
0.753777181
0.753962797
0.754144685
0.754322526
0.754495918
0.754664431
0.754828042
0.754987397
0.75514345
0.755297239
0.755449813
0.755602112
0.755754802
0.755908187
0.756062272
0.756216973
0.756372009
0.756526573
0.756679558
0.756831063
0.756980388
0.757126917
0.757270172
0.757409782
0.757545491
0.757677178
0.75780488
0.75792883
0.758049484
0.758167553
0.758283993
0.758399951
0.75851661
0.75863495
0.758755827
0.758878086
0.759001341
0.759124369
0.759245525
0.759363213
0.759476081
0.759583139
0.759683778
0.759777695
0.759864732
0.759944569
0.760016115
0.760076181
0.760116376
0.648656705
0.649405951
0.650068589
0.650672031
0.651235018
0.651760193
0.652247541
0.652697504
0.653112049
0.65349429
0.653847902
0.654175985
0.654481278
0.65476747
0.655037547
0.655294082
0.65553988
0.655777135
0.656007514
0.656232383
0.656453293
0.656671541
0.656888215
0.657103968
0.657319363
0.65753394
0.657748393
0.657960528
0.658171205
0.658380618
0.65858914
0.658797104
0.659005021
0.659213424
0.659422675
0.659632984
0.659844406
0.660057134
0.660271239
0.660486847
0.660704063
0.660923012
0.66114381
0.661366172
0.661590397
0.661815951
0.662042748
0.662270889
0.662500622
0.66273229
0.662966291
0.66320309
0.663443131
0.663686919
0.663934928
0.664187722
0.664445869
0.664709973
0.664980622
0.665258307
0.665543558
0.665836775
0.666138492
0.666449018
0.666769024
0.667099051
0.667439641
0.667791401
0.66815496
0.668530817
0.668919461
0.669321259
0.66973653
0.670165464
0.670608159
0.671064652
0.671534922
0.672019013
0.672516772
0.673028022
0.673552588
0.674090185
0.674640437
0.675202985
0.675777339
0.676363136
0.676959779
0.677566659
0.678183151
0.678808553
0.679442134
0.680083128
0.680730747
0.681384256
0.682042961
0.682706184
0.683373344
0.684044116
0.684717785
0.685394101
0.686072936
0.686753955
0.687436838
0.688121254
0.688806866
0.689493296
0.690180249
0.690867437
0.691554567
0.692241441
0.692927899
0.693613833
0.694299184
0.694983933
0.695668106
0.696351781
0.69703509
0.697718241
0.698401536
0.699085388
0.699770348
0.70045712
0.701146543
0.701839574
0.702537031
0.703239792
0.703948471
0.704663435
0.705384809
0.706112498
0.706846217
0.707585577
0.708330114
0.709079324
0.709832691
0.71058971
0.711349889
0.712112771
0.712877889
0.713644786
0.714412974
0.715181955
0.715950976
0.716719101
0.717485275
0.718248481
0.719007879
0.71976256
0.720512283
0.721256889
0.721995779
0.722728611
0.723455138
0.724174922
0.724887867
0.725594155
0.726293968
0.726986612
0.72767196
0.728349857
0.729020142
0.729682645
0.730337197
0.730983627
0.731621766
0.732251447
0.732872512
0.733484809
0.734088197
0.734682553
0.735267783
0.73584386
0.736410997
0.736970989
0.737515963
0.738054535
0.738582993
0.73910194
0.73961134
0.740111209
0.740601576
0.741082477
0.741553974
0.742016149
0.742469081
0.742912832
0.743347496
0.743773259
0.744190319
0.744598758
0.74499866
0.745390321
0.745774247
0.746150361
0.746518763
0.746879462
0.747233215
0.7475803
0.74792011
0.748252668
0.748576621
0.748893723
0.749204462
0.749509024
0.74980641
0.750095356
0.750378866
0.75065437
0.750922981
0.751185016
0.751439291
0.751687074
0.751927161
0.752160894
0.752387255
0.752606946
0.752820082
0.753026487
0.75322791
0.753424356
0.753616645
0.753805207
0.753990068
0.75417138
0.754348527
0.754521156
0.754689067
0.754852331
0.755011503
0.755167457
0.755321212
0.755473784
0.755626048
0.755778603
0.755931723
0.756085414
0.756239648
0.756394342
0.756548056
0.756700329
0.756851124
0.756999763
0.757145642
0.757288302
0.757427386
0.757562646
0.757693961
0.757821369
0.757945094
0.758065585
0.758183535
0.758299879
0.758415735
0.758532251
0.758650358
0.758770722
0.758892652
0.759015402
0.759137805
0.75925828
0.759375275
0.759487476
0.759593915
0.759693998
0.759787429
0.759874052
0.759953544
0.760024811
0.760084663
0.760124717
0.679468256
0.672558452
0.668941636
0.666802509
0.665395604
0.66441932
0.66372326
0.663228701
0.662882656
0.662643282
0.662481916
0.662372058
0.662298561
0.66225436
0.662234776
0.662235846
0.662255903
0.662292513
0.662341619
0.662400467
0.662469053
0.662547119
0.662634268
0.66272964
0.662832346
0.662940301
0.663052377
0.663166223
0.663282834
0.663402798
0.663526434
0.663653742
0.663784949
0.663920198
0.664059304
0.664201893
0.664347659
0.664496713
0.664649162
0.664805153
0.664964739
0.665127876
0.665294409
0.665463679
0.665635332
0.665808683
0.665983619
0.66616035
0.666339282
0.666520856
0.666705494
0.666893622
0.667085579
0.667281758
0.667482455
0.667688157
0.667899323
0.668116471
0.668340071
0.668570469
0.668808057
0.669053054
0.669305863
0.669566631
0.669835902
0.670114138
0.670401847
0.670699554
0.671007901
0.671327367
0.671658549
0.672001896
0.672357878
0.672726847
0.673109082
0.673504776
0.673914292
0.674337693
0.674774952
0.675226054
0.675690898
0.676169285
0.676660927
0.677165532
0.677682704
0.678212151
0.678753341
0.679305745
0.679868808
0.680441892
0.681024326
0.681615385
0.682214342
0.68282049
0.68343317
0.684051752
0.684675669
0.685304688
0.685937728
0.686574911
0.687215917
0.687860384
0.688507954
0.68915826
0.68981095
0.690465619
0.691121941
0.691779623
0.692438356
0.693097914
0.693758115
0.694418827
0.695079965
0.695741484
0.696403387
0.697065731
0.697728631
0.69839228
0.699056969
0.699723102
0.700391214
0.701061981
0.701736201
0.702414764
0.703098401
0.703787883
0.704483714
0.705186151
0.705895228
0.70661078
0.707332472
0.708059875
0.708792508
0.709529859
0.710271418
0.71101669
0.711765194
0.712516482
0.713270096
0.714025589
0.714782432
0.715540134
0.716297888
0.717054761
0.717809753
0.718561935
0.719310538
0.720054758
0.720794222
0.721528806
0.722257985
0.722981426
0.723698877
0.724409859
0.725114471
0.725812623
0.726504406
0.727189332
0.727867223
0.72853791
0.72920122
0.729856977
0.730505005
0.731145127
0.73177717
0.732400961
0.733016339
0.733623145
0.734221238
0.734810487
0.735390795
0.735962124
0.736524675
0.737081014
0.737620886
0.738155489
0.738680088
0.739195307
0.739701124
0.740197554
0.74068462
0.741162358
0.741630819
0.742090082
0.742540228
0.74298132
0.743413433
0.743836732
0.744251418
0.744657604
0.745055361
0.745444913
0.74582675
0.746200884
0.746567464
0.746926443
0.747278367
0.747623754
0.74796208
0.748293454
0.748616119
0.748931629
0.749241072
0.749544642
0.749841187
0.750129126
0.750411462
0.750685878
0.750953699
0.751215174
0.751468707
0.751715675
0.751955107
0.752188361
0.752414268
0.75263336
0.75284591
0.753051896
0.753252955
0.753448885
0.753640493
0.753828354
0.754012608
0.754193354
0.754369936
0.754542018
0.754709486
0.75487245
0.755031446
0.75518731
0.755341028
0.755493575
0.755645775
0.755798188
0.755951067
0.756104419
0.756258239
0.75641273
0.756565605
0.756717361
0.75686759
0.757015672
0.757161021
0.757303196
0.757441851
0.757576744
0.757707755
0.75783492
0.75795846
0.758078814
0.758196662
0.758312923
0.758428691
0.758545086
0.758663003
0.758783025
0.758904624
0.759026942
0.759148832
0.759268752
0.759385185
0.759496842
0.759602777
0.759702406
0.759795441
0.759881727
0.759960937
0.760031975
0.760091652
0.760131592
0.734228802
0.734228504
0.734228277
0.734228093
0.734227942
0.734227809
0.734227702
0.734227648
0.734227559
0.734227463
0.734227419
0.734227392
0.734227341
0.734227291
0.734227257
0.734227226
0.734227188
0.734227153
0.734227124
0.734227094
0.734227062
0.734227033
0.734227006
0.734226979
0.734226951
0.734226924
0.734226899
0.734226874
0.734226849
0.734226824
0.734226799
0.734226774
0.73422675
0.734226726
0.734226703
0.734226681
0.734226658
0.734226525
0.734221687
0.734000136
0.734228872
0.734228604
0.734228392
0.734228219
0.734228074
0.734227946
0.734227828
0.734227761
0.734227696
0.734227606
0.734227527
0.734227485
0.734227447
0.734227399
0.734227354
0.73422732
0.734227287
0.73422725
0.734227217
0.734227188
0.734227158
0.734227127
0.734227098
0.734227071
0.734227044
0.734227016
0.734226989
0.734226963
0.734226938
0.734226914
0.734226889
0.734226864
0.734226839
0.734226816
0.734226792
0.73422677
0.734226749
0.734226711
0.734226001
0.734202358
0.734228924
0.73422868
0.734228479
0.734228311
0.734228171
0.734228046
0.734227935
0.734227853
0.734227784
0.734227705
0.734227626
0.734227565
0.734227524
0.734227484
0.73422744
0.734227397
0.734227362
0.734227329
0.734227294
0.734227262
0.734227234
0.734227205
0.734227175
0.734227146
0.734227119
0.734227093
0.734227066
0.734227039
0.734227011
0.734226985
0.734226961
0.734226937
0.734226913
0.734226889
0.734226866
0.734226842
0.734226819
0.734226795
0.734226732
0.734225905
0.734228938
0.734228709
0.734228515
0.73422835
0.734228211
0.73422809
0.734227985
0.734227895
0.734227818
0.734227747
0.734227676
0.734227611
0.734227561
0.734227521
0.734227481
0.734227438
0.734227399
0.734227364
0.73422733
0.734227298
0.734227267
0.734227238
0.734227209
0.734227179
0.734227152
0.734227125
0.734227098
0.734227069
0.73422704
0.734227012
0.734226986
0.734226961
0.734226938
0.734226915
0.73422689
0.734226865
0.734226839
0.734226816
0.734226896
0.734230573
0.734228936
0.734228703
0.734228505
0.734228339
0.734228198
0.734228079
0.734227973
0.734227878
0.734227803
0.734227739
0.734227668
0.734227596
0.734227542
0.734227507
0.734227472
0.73422743
0.734227388
0.734227351
0.734227315
0.734227282
0.734227252
0.73422722
0.734227189
0.734227159
0.73422713
0.734227103
0.734227074
0.734227044
0.734227012
0.734226983
0.734226954
0.734226928
0.734226905
0.734226882
0.734226857
0.734226829
0.734226801
0.734226786
0.734227173
0.734239481
0.734228915
0.734228663
0.734228456
0.734228285
0.734228142
0.734228023
0.734227909
0.734227806
0.734227738
0.734227684
0.734227609
0.734227529
0.734227475
0.734227449
0.734227415
0.734227369
0.734227327
0.734227289
0.734227251
0.734227217
0.734227185
0.73422715
0.734227117
0.734227086
0.734227056
0.734227026
0.734226995
0.734226963
0.734226932
0.734226903
0.734226875
0.734226848
0.734226823
0.734226797
0.73422677
0.734226741
0.734226715
0.734226742
0.734228353
0.734271652
0.73422886
0.734228586
0.73422837
0.734228193
0.734228043
0.734227922
0.734227798
0.734227683
0.734227635
0.734227581
0.734227491
0.73422742
0.73422739
0.734227355
0.734227305
0.73422726
0.734227222
0.734227181
0.734227144
0.734227108
0.734227071
0.734227037
0.734227004
0.734226971
0.734226939
0.734226907
0.734226875
0.734226847
0.734226819
0.734226791
0.734226763
0.734226735
0.734226707
0.734226678
0.73422665
0.734226623
0.734226604
0.734226816
0.734233292
0.734393268
0.734228799
0.734228496
0.734228263
0.73422807
0.734227908
0.734227777
0.734227642
0.734227553
0.734227523
0.734227436
0.734227344
0.734227313
0.734227292
0.734227235
0.734227182
0.734227145
0.734227106
0.734227064
0.734227029
0.734226991
0.734226954
0.734226922
0.734226889
0.734226857
0.734226825
0.734226795
0.734226766
0.734226738
0.73422671
0.734226681
0.734226653
0.734226624
0.734226595
0.734226567
0.73422654
0.734226513
0.734226515
0.734227347
0.734249531
0.734800646
0.72148806
0.711032191
0.702536468
0.695589277
0.689950066
0.685667867
0.682424574
0.67994495
0.678019139
0.676487257
0.675246075
0.674223808
0.673373484
0.672664878
0.672073847
0.671583564
0.671175928
0.670837722
0.670553102
0.670311217
0.67010743
0.669937825
0.669798431
0.669685398
0.669594789
0.669521711
0.669462792
0.669415461
0.669379836
0.669356441
0.669345283
0.669345596
0.669356849
0.669378339
0.669409151
0.669448187
0.669494689
0.669548542
0.669609809
0.669678628
0.669754807
0.669838001
0.669927503
0.670022259
0.670121172
0.670223293
0.670328304
0.670436371
0.670547954
0.67066354
0.670783527
0.670908256
0.671037958
0.671172875
0.671313167
0.671459201
0.671611358
0.671770055
0.671935682
0.672108493
0.672288722
0.672476449
0.672671871
0.672875021
0.673086228
0.67330583
0.673534222
0.673771819
0.674019187
0.674276748
0.674545148
0.674824897
0.675116571
0.675420684
0.675737714
0.676067997
0.676412245
0.67677058
0.677143129
0.677530005
0.677931194
0.678346579
0.678775959
0.679219102
0.679675717
0.680145526
0.680628107
0.681123008
0.681629732
0.682147703
0.682676305
0.683214859
0.683762693
0.684319124
0.684883522
0.685455307
0.686033933
0.68661903
0.687209743
0.687805994
0.688407448
0.68901372
0.689624412
0.690239122
0.690857474
0.691479038
0.692103456
0.69273042
0.693359603
0.69399075
0.694623654
0.695258156
0.695894143
0.696531542
0.69717033
0.697810541
0.69845227
0.699095691
0.699741077
0.700388811
0.701039398
0.701693475
0.702351781
0.703015129
0.703684157
0.704359542
0.705041689
0.705730766
0.706426734
0.707129368
0.707838292
0.70855304
0.709273112
0.709997984
0.710727148
0.711460114
0.712196405
0.712935579
0.713677177
0.71442077
0.71516577
0.715911666
0.716657645
0.717402781
0.71814614
0.718886881
0.719624292
0.720357649
0.721086533
0.721810737
0.72252985
0.723243562
0.723951609
0.724653467
0.725349429
0.726039137
0.726722624
0.727399552
0.728069715
0.728732927
0.729389007
0.730037771
0.730679036
0.73131262
0.731938343
0.732556031
0.733165513
0.733766631
0.734359235
0.734943193
0.7355184
0.736084813
0.736642646
0.73718967
0.737729824
0.738260241
0.738780843
0.739292197
0.739794301
0.740287165
0.740770811
0.741245268
0.741710583
0.742166829
0.742614086
0.743052414
0.743481882
0.743902632
0.744314863
0.744718701
0.745114217
0.745501594
0.745881293
0.746253378
0.746618024
0.746975194
0.74732528
0.747668952
0.748005711
0.748335746
0.748657063
0.748971037
0.749279211
0.749581644
0.749877175
0.750164127
0.75044536
0.750718708
0.750985575
0.751246342
0.75149919
0.751745415
0.751984184
0.752216822
0.752442208
0.752660757
0.752872758
0.753078277
0.753278881
0.753474292
0.753665256
0.753852414
0.754036031
0.754216179
0.754392185
0.754563725
0.754730734
0.754893379
0.755052189
0.755207961
0.755361637
0.755514147
0.755666269
0.755818525
0.75597115
0.756124149
0.756277522
0.756432604
0.756583825
0.756735042
0.75688469
0.757032196
0.757176997
0.75731867
0.757456881
0.757591392
0.757722088
0.757849
0.757972346
0.758092555
0.758210297
0.758326471
0.758442145
0.758558413
0.758676132
0.758795816
0.758917061
0.759038928
0.759160285
0.759279629
0.759395479
0.759506572
0.759611984
0.759711143
0.759803767
0.759889701
0.759968619
0.760039419
0.760098914
0.76013874
0.733375922
0.731481958
0.729016726
0.725794039
0.721984248
0.717138697
0.712259659
0.707839265
0.703885728
0.700315581
0.697183235
0.694555362
0.692337115
0.690465141
0.688876476
0.687512394
0.686328179
0.685285059
0.684352124
0.683516261
0.682773987
0.682119009
0.681538934
0.681021793
0.680555369
0.680127611
0.679734243
0.679373117
0.679045261
0.678751431
0.678488911
0.678253809
0.678043618
0.677855736
0.677687632
0.677537004
0.677402925
0.677285556
0.677184998
0.677100803
0.677031665
0.676975901
0.676931397
0.676896072
0.676867715
0.676845377
0.676829029
0.676819245
0.676816763
0.676821997
0.676835054
0.676855941
0.676884532
0.676920793
0.676964631
0.677016359
0.677076335
0.677144814
0.677222026
0.677307977
0.677402573
0.677505544
0.67761677
0.677735978
0.677863307
0.677998846
0.678142799
0.678295454
0.678457291
0.678628608
0.678810143
0.679002376
0.679206055
0.679421828
0.67965034
0.679892053
0.680147855
0.680417906
0.680702411
0.681001565
0.681315408
0.681643892
0.681986923
0.682344385
0.682716167
0.68310204
0.683501762
0.683915033
0.684341452
0.684780546
0.685231796
0.6856946
0.686168372
0.686652506
0.687146436
0.687649627
0.688161702
0.688681895
0.689209797
0.689745155
0.690287579
0.690836649
0.691391944
0.691953029
0.692519501
0.693090919
0.693666892
0.694247089
0.694831171
0.695418854
0.696009903
0.696604129
0.697201383
0.697801559
0.698404601
0.699010514
0.699619363
0.700231291
0.700846543
0.701465462
0.702088505
0.702716243
0.703349329
0.703988469
0.704634176
0.705286995
0.705947195
0.706614817
0.707289714
0.707971574
0.708659953
0.709354342