/*--------------------------------*- C++ -*----------------------------------*\
  =========                 |
  \\      /  F ield         | OpenFOAM: The Open Source CFD Toolbox
   \\    /   O peration     | Website:  https://openfoam.org
    \\  /    A nd           | Version:  6
     \\/     M anipulation  |
\*---------------------------------------------------------------------------*/
FoamFile
{
    version     2.0;
    format      ascii;
    class       volScalarField;
    location    "25000";
    object      N2O;
}
// * * * * * * * * * * * * * * * * * * * * * * * * * * * * * * * * * * * * * //

dimensions      [0 0 0 0 0 0 0];

internalField   nonuniform List<scalar> 
44870
(
2.03485301e-66
4.09164023e-66
6.15460152e-66
8.22202231e-66
1.02970131e-65
1.23807781e-65
1.44780021e-65
1.65904054e-65
1.87227324e-65
2.08767493e-65
2.30570054e-65
2.52651739e-65
2.75054053e-65
2.97791886e-65
3.20900458e-65
3.44393557e-65
3.68684798e-65
4.53635386e-65
1.00398094e-63
1.54372602e-61
2.51654329e-59
4.17079691e-57
7.02182125e-55
1.20042507e-52
2.08260767e-50
3.66521481e-48
6.53856036e-46
1.18189693e-43
2.16239931e-41
4.00250739e-39
7.48248213e-37
1.41149666e-34
2.67881105e-32
5.10392843e-30
9.70248947e-28
1.82904662e-25
3.36817044e-23
5.93981722e-21
9.44785206e-19
1.27271732e-16
2.03604967e-66
4.09619614e-66
6.17072942e-66
8.26210625e-66
1.03778585e-65
1.25211776e-65
1.46997427e-65
1.69154958e-65
1.91747947e-65
2.1478357e-65
2.38317506e-65
2.62346983e-65
2.86922945e-65
3.12036605e-65
3.37732121e-65
3.64001339e-65
3.91389164e-65
5.06186911e-65
1.56468833e-63
2.67789268e-61
4.79287677e-59
8.71502817e-57
1.60700231e-54
3.00503692e-52
5.68860849e-50
1.09090766e-47
2.11495766e-45
4.15132797e-43
8.22864701e-41
1.6511514e-38
3.3423367e-36
6.84938265e-34
1.41407137e-31
2.95560325e-29
6.20688068e-27
1.31650717e-24
2.78052957e-22
5.86226755e-20
1.15575841e-17
2.16895245e-15
2.04834741e-66
4.15724494e-66
6.33045338e-66
8.57825499e-66
1.09132076e-65
1.33382425e-65
1.58647785e-65
1.84900106e-65
2.1223472e-65
2.40602917e-65
2.70095877e-65
3.00633926e-65
3.32333556e-65
3.65059754e-65
3.98978818e-65
4.3392219e-65
4.71436236e-65
7.86034209e-65
5.66518089e-63
1.13829615e-60
2.32393515e-58
4.77867955e-56
9.87550149e-54
2.05508539e-51
4.29416436e-49
9.04037161e-47
1.90981004e-44
4.06870617e-42
8.69196774e-40
1.87552554e-37
4.05452617e-35
8.87015007e-33
1.94151325e-30
4.3125232e-28
9.57627574e-26
2.1642941e-23
4.88387512e-21
1.13071686e-18
2.51272347e-16
5.7383596e-14
2.2386493e-66
4.76685198e-66
7.54591181e-66
1.05643603e-65
1.38067873e-65
1.72647649e-65
2.09302912e-65
2.479392e-65
2.88465979e-65
3.30750021e-65
3.74674147e-65
4.20073591e-65
4.66805847e-65
5.1468914e-65
5.63559293e-65
6.13310779e-65
6.79590157e-65
4.32725198e-64
8.09769286e-62
1.80390637e-59
4.00791176e-57
8.87998707e-55
1.96244944e-52
4.33121674e-50
9.54406799e-48
2.10330126e-45
4.6322092e-43
1.02151753e-40
2.25255518e-38
4.98167076e-36
1.10197038e-33
2.44848002e-31
5.44136021e-29
1.21652868e-26
2.72017856e-24
6.11594247e-22
1.37149548e-19
3.08007721e-17
6.69394902e-15
1.41511214e-12
4.87326124e-66
9.50773115e-66
1.39243575e-65
1.81646392e-65
2.2270567e-65
2.6269007e-65
3.018636e-65
3.40397687e-65
3.78478142e-65
4.16225547e-65
4.53780784e-65
4.91234133e-65
5.28697882e-65
5.66239784e-65
6.03953555e-65
6.43249781e-65
1.00300242e-64
7.53233416e-63
1.70596424e-60
3.86566965e-58
8.69103606e-56
1.94057351e-53
4.30704338e-51
9.50960986e-49
2.09014272e-46
4.57624132e-44
9.98601624e-42
2.17250365e-39
4.71500615e-37
1.02103718e-34
2.20721901e-32
4.76399179e-30
1.02702048e-27
2.21160415e-25
4.75887457e-23
1.02323841e-20
2.19907206e-18
4.72358477e-16
1.01420303e-13
2.18836345e-11
4.06295956e-15
1.70010152e-14
4.43792086e-14
9.55645471e-14
1.84455253e-13
3.30053952e-13
5.56783461e-13
8.95989966e-13
1.38469212e-12
2.07049426e-12
3.00642423e-12
4.26160992e-12
5.909517e-12
8.04605388e-12
1.07757385e-11
1.4221231e-11
1.85305668e-11
2.38577053e-11
3.04120192e-11
3.83912241e-11
4.80646337e-11
5.97077794e-11
7.36530019e-11
9.02836213e-11
1.10033688e-10
1.33424326e-10
1.60945506e-10
1.93378695e-10
2.31285925e-10
2.7573533e-10
3.27526702e-10
3.8777768e-10
4.57715661e-10
5.38419426e-10
6.31533377e-10
7.38207104e-10
8.6037808e-10
9.99357058e-10
1.15722082e-09
1.33559614e-09
1.53669906e-09
1.76260127e-09
2.01553973e-09
2.29779376e-09
2.61103707e-09
2.95703411e-09
3.33710835e-09
3.75237272e-09
4.20379071e-09
4.69228331e-09
5.2186433e-09
5.78365064e-09
6.38781282e-09
7.03150125e-09
7.71458757e-09
8.43659907e-09
9.19641838e-09
9.99250506e-09
1.08228542e-08
1.16852487e-08
1.25774137e-08
1.34970989e-08
1.44423713e-08
1.54114516e-08
1.64032881e-08
1.74170121e-08
1.84526882e-08
1.95104133e-08
2.05909305e-08
2.16944516e-08
2.28211081e-08
2.39702924e-08
2.51405714e-08
2.63306705e-08
2.7537747e-08
2.87602687e-08
2.99969327e-08
3.12455597e-08
3.25048655e-08
3.3774149e-08
3.50527811e-08
3.63402621e-08
3.76363474e-08
3.89406103e-08
4.02525761e-08
4.15713819e-08
4.28964033e-08
4.42263685e-08
4.55601286e-08
4.68965553e-08
4.82343096e-08
4.95721601e-08
5.09086342e-08
5.22422543e-08
5.35715394e-08
5.48950546e-08
5.62114153e-08
5.75193834e-08
5.8817854e-08
6.01059756e-08
6.13830911e-08
6.26483706e-08
6.39010285e-08
6.51403327e-08
6.63653643e-08
6.75753803e-08
6.87695606e-08
6.99467285e-08
7.11057748e-08
7.2245062e-08
7.33625765e-08
7.4455451e-08
7.55196536e-08
7.65495986e-08
7.75373386e-08
7.84711334e-08
7.93335661e-08
8.00989505e-08
8.07295897e-08
8.11709645e-08
8.13461782e-08
8.11525298e-08
8.04658936e-08
7.91613816e-08
7.71544247e-08
7.44494626e-08
7.11665747e-08
6.75215407e-08
6.37699244e-08
6.01485148e-08
5.68390825e-08
5.3957413e-08
5.15650556e-08
4.96828204e-08
4.82998518e-08
4.73906177e-08
4.69096019e-08
4.67940321e-08
4.69505833e-08
4.72019664e-08
4.75251956e-08
4.76483654e-08
4.72736551e-08
4.65732468e-08
4.65066017e-08
4.79138227e-08
5.10660999e-08
5.59890065e-08
6.26315297e-08
7.0847032e-08
8.05361607e-08
9.16228508e-08
1.04053494e-07
1.17802124e-07
1.32858109e-07
1.49216669e-07
1.66872297e-07
1.85813901e-07
2.06023703e-07
2.27477226e-07
2.50142793e-07
2.73980803e-07
2.98943193e-07
3.24972528e-07
3.52000568e-07
3.79946158e-07
4.08712436e-07
4.38183548e-07
4.68221071e-07
4.98660707e-07
5.29310064e-07
5.59948819e-07
5.9033344e-07
6.20201992e-07
6.49186463e-07
6.77033962e-07
7.03467759e-07
7.28203384e-07
7.50996182e-07
7.7164248e-07
7.8998749e-07
8.05929647e-07
8.19421202e-07
8.3046504e-07
8.39109544e-07
8.45443072e-07
8.49586477e-07
8.51683343e-07
8.51892315e-07
8.50382121e-07
8.4732701e-07
8.42887354e-07
8.37228266e-07
8.30511762e-07
8.22893957e-07
8.14507039e-07
8.05454424e-07
7.95876333e-07
7.85909347e-07
7.75659814e-07
7.65196194e-07
7.54533846e-07
7.43793624e-07
7.33052583e-07
7.22352855e-07
7.11726119e-07
7.01117446e-07
6.90698469e-07
6.80507367e-07
6.705201e-07
6.60722475e-07
6.51110337e-07
6.4179699e-07
6.32750335e-07
6.23973161e-07
6.15407272e-07
6.07090825e-07
5.99072786e-07
5.91267399e-07
5.83615374e-07
5.76100026e-07
5.6873246e-07
5.61530251e-07
5.54484647e-07
5.47608107e-07
5.4091648e-07
5.34432799e-07
5.28161155e-07
5.22075208e-07
5.16134735e-07
5.10295666e-07
5.0451336e-07
4.98747971e-07
4.92971649e-07
4.8717179e-07
4.8134895e-07
4.75510705e-07
4.69673152e-07
4.63851789e-07
4.58102615e-07
4.52424757e-07
4.46844678e-07
4.41384992e-07
4.36063724e-07
4.30894326e-07
4.25885471e-07
4.21040589e-07
4.16357004e-07
4.11824831e-07
4.07425811e-07
4.0313246e-07
3.98908211e-07
3.94709632e-07
3.90491863e-07
3.86216971e-07
3.81853239e-07
3.77435387e-07
3.7299817e-07
3.68567831e-07
3.64209408e-07
3.59982116e-07
3.55935376e-07
3.52104954e-07
3.48512438e-07
3.45167976e-07
3.42076212e-07
3.39247179e-07
3.3671766e-07
3.34598056e-07
3.33180866e-07
8.38429932e-14
3.01777086e-13
6.86551203e-13
1.337718e-12
2.39251583e-12
4.01669001e-12
6.39606892e-12
9.76154023e-12
1.43656415e-11
2.05294282e-11
2.85823796e-11
3.89515653e-11
5.20521818e-11
6.842264e-11
8.86038437e-11
1.13197116e-10
1.42894232e-10
1.78352545e-10
2.20435094e-10
2.69835375e-10
3.27476242e-10
3.94205664e-10
4.70898905e-10
5.58635824e-10
6.58132026e-10
7.70661293e-10
8.96872658e-10
1.03797761e-09
1.19476033e-09
1.36833075e-09
1.55921014e-09
1.76813757e-09
1.99537579e-09
2.24116595e-09
2.50557654e-09
2.78844161e-09
3.08977537e-09
3.40916716e-09
3.746709e-09
4.10190236e-09
4.47484371e-09
4.8649443e-09
5.27204063e-09
5.69575957e-09
6.1351439e-09
6.59003009e-09
7.06020561e-09
7.54576283e-09
8.04708526e-09
8.56483025e-09
9.09985748e-09
9.65323251e-09
1.02261215e-08
1.08198129e-08
1.14356168e-08
1.20748753e-08
1.27388084e-08
1.34285047e-08
1.41447747e-08
1.48881635e-08
1.56588808e-08
1.64568936e-08
1.72819464e-08
1.81337127e-08
1.90119439e-08
1.99163064e-08
2.08469364e-08
2.18038863e-08
2.27874742e-08
2.37976231e-08
2.48341224e-08
2.58961835e-08
2.69824523e-08
2.80915706e-08
2.92211544e-08
3.03695783e-08
3.15356104e-08
3.2717229e-08
3.39130836e-08
3.51223583e-08
3.63441014e-08
3.75776157e-08
3.88223839e-08
4.00776827e-08
4.13427455e-08
4.26165821e-08
4.38983312e-08
4.51867318e-08
4.64805463e-08
4.77786455e-08
4.90796152e-08
5.03820693e-08
5.16845171e-08
5.29854006e-08
5.42831517e-08
5.55762341e-08
5.68631671e-08
5.81426265e-08
5.94134386e-08
6.06747119e-08
6.19257083e-08
6.31655223e-08
6.43933188e-08
6.56083078e-08
6.68095086e-08
6.79961386e-08
6.91672441e-08
7.03215273e-08
7.14576986e-08
7.25739056e-08
7.36678123e-08
7.47362347e-08
7.57747852e-08
7.67773726e-08
7.77354236e-08
7.86364197e-08
7.94620607e-08
8.01856333e-08
8.07683663e-08
8.11548754e-08
8.1268013e-08
8.10063563e-08
8.02498047e-08
7.88811743e-08
7.68263379e-08
7.40996067e-08
7.08260764e-08
6.72194849e-08
6.35279162e-08
5.99788726e-08
5.67458204e-08
5.39382265e-08
5.1614646e-08
4.97944915e-08
4.8465058e-08
4.76009088e-08
4.71537877e-08
4.70581986e-08
4.72173762e-08
4.7483724e-08
4.78019468e-08
4.79006267e-08
4.75172394e-08
4.69061878e-08
4.70167227e-08
4.86170368e-08
5.1941059e-08
5.70109949e-08
6.37749638e-08
7.20941254e-08
8.1871901e-08
9.30351749e-08
1.05531838e-07
1.19338375e-07
1.34445401e-07
1.50848669e-07
1.68542763e-07
1.87516474e-07
2.0775201e-07
2.29225014e-07
2.51903883e-07
2.75749078e-07
3.00712519e-07
3.26736644e-07
3.53752927e-07
3.81679751e-07
4.10419604e-07
4.39855813e-07
4.69849025e-07
5.00233991e-07
5.30817468e-07
5.61378521e-07
5.91673612e-07
6.21444135e-07
6.50313737e-07
6.78039002e-07
7.04345265e-07
7.28949009e-07
7.51608248e-07
7.72122272e-07
7.90338986e-07
8.06159215e-07
8.19537182e-07
8.30477141e-07
8.39028274e-07
8.45279436e-07
8.49351679e-07
8.51388177e-07
8.51546816e-07
8.49995815e-07
8.46909339e-07
8.42445476e-07
8.36768539e-07
8.30040513e-07
8.22418734e-07
8.14031995e-07
8.04979795e-07
7.95402295e-07
7.85442731e-07
7.7520596e-07
7.64752421e-07
7.54096435e-07
7.43361435e-07
7.32635012e-07
7.21953479e-07
7.11337158e-07
7.00731635e-07
6.90320248e-07
6.80147333e-07
6.70174899e-07
6.60382936e-07
6.5077329e-07
6.41467148e-07
6.32434989e-07
6.23668965e-07
6.15107713e-07
6.06794063e-07
5.98783233e-07
5.9098593e-07
5.83343831e-07
5.75836351e-07
5.68476295e-07
5.61283817e-07
5.54248065e-07
5.47379242e-07
5.40693709e-07
5.34215245e-07
5.27947883e-07
5.21864564e-07
5.15925054e-07
5.10086156e-07
5.04304137e-07
4.98539642e-07
4.92765075e-07
4.8696806e-07
4.81149213e-07
4.75315501e-07
4.69482757e-07
4.63667877e-07
4.57925946e-07
4.52255023e-07
4.46681455e-07
4.41227885e-07
4.35912185e-07
4.30747705e-07
4.25743066e-07
4.20901686e-07
4.1622091e-07
4.11690911e-07
4.07293523e-07
4.03001398e-07
3.9877816e-07
3.94580621e-07
3.90364203e-07
3.86091187e-07
3.81728555e-07
3.77317712e-07
3.72884339e-07
3.6845928e-07
3.64106606e-07
3.5988514e-07
3.55844011e-07
3.52018785e-07
3.48430924e-07
3.45090519e-07
3.42002215e-07
3.39176068e-07
3.3664889e-07
3.34531058e-07
3.33115182e-07
3.15437221e-12
9.91428009e-12
2.01987608e-11
3.61392773e-11
5.95384903e-11
9.20130783e-11
1.35154027e-10
1.90647416e-10
2.60018494e-10
3.44908773e-10
4.46611557e-10
5.66495636e-10
7.05440139e-10
8.64425595e-10
1.04397128e-09
1.2445762e-09
1.46646771e-09
1.70952162e-09
1.97356927e-09
2.25798189e-09
2.56216438e-09
2.8852253e-09
3.22620533e-09
3.58409291e-09
3.95763937e-09
4.34599248e-09
4.74748738e-09
5.16077389e-09
5.58466324e-09
6.01736932e-09
6.45698929e-09
6.90170685e-09
7.34969126e-09
7.79951512e-09
8.24982273e-09
8.69985562e-09
9.14903713e-09
9.59721717e-09
1.00444836e-08
1.04908521e-08
1.09366379e-08
1.13818904e-08
1.18271749e-08
1.22730359e-08
1.27197155e-08
1.31681892e-08
1.36193603e-08
1.4074275e-08
1.45340725e-08
1.49999854e-08
1.54732634e-08
1.59553267e-08
1.64476683e-08
1.69518937e-08
1.74696864e-08
1.80027889e-08
1.85529353e-08
1.91218207e-08
1.97110248e-08
2.03219574e-08
2.09558259e-08
2.16136726e-08
2.22962826e-08
2.30044878e-08
2.37387452e-08
2.44995009e-08
2.5287409e-08
2.61028157e-08
2.69460246e-08
2.78170279e-08
2.87156024e-08
2.96411198e-08
3.05926528e-08
3.15691584e-08
3.25691509e-08
3.35913624e-08
3.46349602e-08
3.56984557e-08
3.67807123e-08
3.78808175e-08
3.89977227e-08
4.01304759e-08
4.12781441e-08
4.24397017e-08
4.36140553e-08
4.48001256e-08
4.59967874e-08
4.72029392e-08
4.84172946e-08
4.96385769e-08
5.08653942e-08
5.20962361e-08
5.33294712e-08
5.45633955e-08
5.579629e-08
5.70264428e-08
5.82522165e-08
5.94721507e-08
6.06849763e-08
6.18897453e-08
6.30855514e-08
6.42713838e-08
6.54463212e-08
6.66094533e-08
6.77596885e-08
6.88961251e-08
7.00175316e-08
7.11223607e-08
7.22088622e-08
7.32747057e-08
7.43169057e-08
7.53316016e-08
7.63135397e-08
7.72555527e-08
7.81476508e-08
7.89757286e-08
7.9719602e-08
8.03504312e-08
8.08273278e-08
8.10934296e-08
8.10716302e-08
8.06641136e-08
7.97603864e-08
7.82604041e-08
7.61119074e-08
7.33486999e-08
7.01045755e-08
6.65874352e-08
6.30290645e-08
5.96374992e-08
5.65691627e-08
5.392035e-08
5.17439382e-08
5.00564954e-08
4.88406078e-08
4.80715285e-08
4.76938129e-08
4.76360033e-08
4.779204e-08
4.81003421e-08
4.84076821e-08
4.84512593e-08
4.808119e-08
4.76988858e-08
4.82072815e-08
5.02180381e-08
5.39088097e-08
5.92928951e-08
6.63161486e-08
7.48583113e-08
8.48268428e-08
9.61551017e-08
1.08793768e-07
1.22724989e-07
1.37942084e-07
1.54441731e-07
1.72218591e-07
1.91261277e-07
2.11551925e-07
2.33066407e-07
2.55773268e-07
2.7963307e-07
3.04597665e-07
3.30609171e-07
3.57598402e-07
3.85482694e-07
4.14163087e-07
4.43521104e-07
4.73415363e-07
5.03678564e-07
5.34115649e-07
5.64504421e-07
5.94601422e-07
6.24155979e-07
6.52772024e-07
6.80228345e-07
7.0625423e-07
7.30568494e-07
7.52935027e-07
7.73159497e-07
7.91095689e-07
8.06649548e-07
8.19779427e-07
8.30492593e-07
8.38840165e-07
8.44912e-07
8.48829225e-07
8.50734117e-07
8.50783247e-07
8.49143531e-07
8.45989e-07
8.41472859e-07
8.35758449e-07
8.29005958e-07
8.21372699e-07
8.12984719e-07
8.03937648e-07
7.94367878e-07
7.84421484e-07
7.74202249e-07
7.63769615e-07
7.5313892e-07
7.42425065e-07
7.31721054e-07
7.21064931e-07
7.10473107e-07
6.99891467e-07
6.89504321e-07
6.7935734e-07
6.694047e-07
6.59631175e-07
6.50041401e-07
6.4075303e-07
6.31740406e-07
6.22991009e-07
6.14445945e-07
6.06147001e-07
5.98159819e-07
5.90369977e-07
5.8274203e-07
5.75255118e-07
5.67915326e-07
5.60742339e-07
5.53725084e-07
5.46872879e-07
5.40202591e-07
5.33736623e-07
5.27478178e-07
5.21400342e-07
5.15463506e-07
5.0962572e-07
5.03844643e-07
4.98082155e-07
4.92311511e-07
4.86520872e-07
4.80710902e-07
4.7488725e-07
4.69064471e-07
4.63264335e-07
4.57538231e-07
4.5188239e-07
4.46323056e-07
4.40882867e-07
4.35579359e-07
4.30425654e-07
4.25430256e-07
4.20596559e-07
4.15921959e-07
4.11396748e-07
4.07002963e-07
4.02713558e-07
3.98492571e-07
3.94297347e-07
3.90083948e-07
3.85815381e-07
3.81449152e-07
3.77060319e-07
3.72634555e-07
3.68220989e-07
3.63880914e-07
3.59672213e-07
3.55643371e-07
3.51829516e-07
3.48251846e-07
3.44920333e-07
3.41839608e-07
3.39019776e-07
3.36497721e-07
3.34383787e-07
3.32970626e-07
1.26762316e-10
3.15260894e-10
5.66440423e-10
8.84199213e-10
1.26561278e-09
1.70607301e-09
2.19859603e-09
2.73643691e-09
3.31222011e-09
3.91950424e-09
4.55135776e-09
5.20147004e-09
5.86268643e-09
6.52949962e-09
7.19589652e-09
7.85800324e-09
8.51131966e-09
9.15275004e-09
9.77995995e-09
1.0390815e-08
1.09842344e-08
1.1559042e-08
1.2115397e-08
1.26529515e-08
1.31729491e-08
1.36757034e-08
1.41620455e-08
1.46321807e-08
1.50872359e-08
1.55273283e-08
1.59530935e-08
1.63651948e-08
1.67647202e-08
1.71529278e-08
1.75311614e-08
1.79007512e-08
1.82628001e-08
1.86185589e-08
1.89689897e-08
1.93150871e-08
1.9657871e-08
1.99984262e-08
2.03379796e-08
2.06776689e-08
2.10182265e-08
2.13606084e-08
2.17056687e-08
2.20543764e-08
2.24078415e-08
2.27672227e-08
2.31337576e-08
2.35087334e-08
2.38933832e-08
2.42889434e-08
2.46965896e-08
2.51175495e-08
2.55530982e-08
2.60045951e-08
2.64734414e-08
2.69609532e-08
2.74684267e-08
2.79969703e-08
2.85476182e-08
2.91212623e-08
2.97186818e-08
3.03405957e-08
3.09877322e-08
3.16605817e-08
3.23595145e-08
3.30846408e-08
3.38358979e-08
3.46130149e-08
3.5415665e-08
3.62434502e-08
3.70958838e-08
3.79724232e-08
3.88728634e-08
3.97963508e-08
4.07420643e-08
4.17090223e-08
4.26962868e-08
4.37026471e-08
4.47268251e-08
4.57676853e-08
4.68240165e-08
4.78948519e-08
4.89791126e-08
5.00757735e-08
5.11836952e-08
5.23015787e-08
5.34279768e-08
5.45612378e-08
5.56995303e-08
5.6840957e-08
5.79836115e-08
5.91255846e-08
6.02650886e-08
6.14005585e-08
6.25306711e-08
6.36543973e-08
6.47706603e-08
6.58783687e-08
6.69764889e-08
6.80639317e-08
6.91394898e-08
7.02019529e-08
7.12497508e-08
7.22809055e-08
7.32929012e-08
7.42826313e-08
7.52462479e-08
7.61787663e-08
7.7073616e-08
7.792197e-08
7.87117548e-08
7.94266828e-08
8.0043909e-08
8.05317781e-08
8.08469123e-08
8.09314332e-08
8.07099003e-08
8.00920299e-08
7.89836048e-08
7.73105907e-08
7.50505019e-08
7.22608911e-08
6.90831904e-08
6.57135617e-08
6.23596452e-08
5.92026258e-08
5.63759312e-08
5.39574391e-08
5.19939164e-08
5.04980298e-08
4.94430571e-08
4.88072291e-08
4.85204408e-08
4.85028057e-08
4.87215658e-08
4.90583342e-08
4.93193137e-08
4.93076624e-08
4.90383335e-08
4.90784556e-08
5.01903045e-08
5.27945866e-08
5.70142097e-08
6.28518919e-08
7.02488838e-08
7.91168462e-08
8.93639006e-08
1.00933527e-07
1.13779171e-07
1.27892534e-07
1.43270803e-07
1.59911499e-07
1.77809079e-07
1.96951921e-07
2.17322103e-07
2.38895741e-07
2.61641535e-07
2.85520114e-07
3.10483139e-07
3.36472143e-07
3.63416849e-07
3.91232923e-07
4.19819163e-07
4.49054351e-07
4.78794077e-07
5.08868028e-07
5.39078565e-07
5.69201763e-07
5.98994374e-07
6.28220268e-07
6.56416072e-07
6.83496427e-07
7.09096491e-07
7.32972669e-07
7.54897469e-07
7.74685897e-07
7.9220044e-07
8.07354506e-07
8.20112423e-07
8.30485952e-07
8.38529185e-07
8.44333248e-07
8.48019003e-07
8.49727488e-07
8.49613589e-07
8.47842199e-07
8.44583963e-07
8.39993035e-07
8.34224611e-07
8.27437042e-07
8.19783673e-07
8.11393193e-07
8.02358712e-07
7.92806889e-07
7.82877517e-07
7.72671863e-07
7.62272237e-07
7.51690593e-07
7.41019239e-07
7.3033897e-07
7.19704749e-07
7.09154423e-07
6.98624263e-07
6.88283401e-07
6.7816089e-07
6.68224531e-07
6.58486337e-07
6.48939505e-07
6.39682153e-07
6.3068524e-07
6.21952831e-07
6.13438706e-07
6.05171441e-07
5.97192322e-07
5.8942101e-07
5.81823452e-07
5.74370423e-07
5.67065054e-07
5.59920397e-07
5.52927343e-07
5.46099849e-07
5.39454609e-07
5.33009035e-07
5.26764142e-07
5.20694561e-07
5.14762643e-07
5.08927621e-07
5.03148594e-07
4.97389351e-07
4.91624821e-07
4.85844057e-07
4.80047688e-07
4.74239472e-07
4.68430554e-07
4.62654245e-07
4.56951591e-07
4.51318268e-07
4.45780326e-07
4.40360283e-07
4.35075151e-07
4.299377e-07
4.24956256e-07
4.20134178e-07
4.15468938e-07
4.10951009e-07
4.06562732e-07
4.02277512e-07
3.98060012e-07
3.93868378e-07
3.8965964e-07
3.85398486e-07
3.81054108e-07
3.76668822e-07
3.72256296e-07
3.67860181e-07
3.63539126e-07
3.59349673e-07
3.55339351e-07
3.51542633e-07
3.4798033e-07
3.44662236e-07
3.41592945e-07
3.3878264e-07
3.36268311e-07
3.34160283e-07
3.32751085e-07
4.92184702e-09
7.69269642e-09
1.01991453e-08
1.249964e-08
1.46131201e-08
1.64937792e-08
1.812126e-08
1.95117897e-08
2.06998051e-08
2.17201122e-08
2.25999008e-08
2.33541101e-08
2.39932348e-08
2.45321981e-08
2.49878875e-08
2.53783324e-08
2.57218937e-08
2.60316852e-08
2.63149037e-08
2.65749001e-08
2.68142506e-08
2.70355192e-08
2.72418069e-08
2.74365191e-08
2.76227817e-08
2.78009774e-08
2.79713045e-08
2.81327695e-08
2.8284728e-08
2.84274845e-08
2.85621017e-08
2.86897814e-08
2.88123132e-08
2.89314394e-08
2.90484269e-08
2.9164239e-08
2.92798891e-08
2.93971814e-08
2.95180281e-08
2.96446848e-08
2.97790922e-08
2.99229318e-08
3.00771463e-08
3.02418698e-08
3.04165499e-08
3.06006403e-08
3.07940292e-08
3.09971912e-08
3.12110035e-08
3.14364418e-08
3.16743223e-08
3.19251951e-08
3.21892091e-08
3.24663876e-08
3.27567072e-08
3.30605531e-08
3.33786898e-08
3.37122859e-08
3.40626692e-08
3.44310115e-08
3.48184041e-08
3.52255064e-08
3.56530082e-08
3.6101112e-08
3.65705406e-08
3.70617317e-08
3.7575013e-08
3.81107039e-08
3.86690642e-08
3.92501528e-08
3.98541397e-08
4.04812753e-08
4.11320479e-08
4.18069974e-08
4.25066776e-08
4.3231413e-08
4.39815736e-08
4.4756686e-08
4.55559912e-08
4.63784596e-08
4.72229391e-08
4.80881122e-08
4.89726658e-08
4.98755582e-08
5.07958309e-08
5.17329542e-08
5.26861531e-08
5.36546162e-08
5.46373658e-08
5.56330825e-08
5.66401584e-08
5.76566928e-08
5.86805842e-08
5.97096938e-08
6.07419071e-08
6.17751542e-08
6.28075536e-08
6.3837561e-08
6.48637764e-08
6.58851603e-08
6.69005091e-08
6.79086768e-08
6.89084562e-08
6.98985164e-08
7.08774912e-08
7.18437231e-08
7.2795146e-08
7.37290457e-08
7.46418961e-08
7.5529478e-08
7.63868145e-08
7.72074523e-08
7.79829839e-08
7.87023689e-08
7.93510356e-08
7.99102195e-08
8.03539667e-08
8.06478053e-08
8.07465757e-08
8.05935382e-08
8.01183413e-08
7.92441347e-08
7.79003681e-08
7.60461538e-08
7.36912399e-08
7.09148036e-08
6.78602637e-08
6.47045957e-08
6.16251278e-08
5.8771958e-08
5.62526279e-08
5.41220696e-08
5.24240529e-08
5.11661261e-08
5.03036743e-08
4.98249452e-08
4.96307024e-08
4.97281117e-08
5.0015739e-08
5.03454547e-08
5.05469833e-08
5.05439189e-08
5.05675142e-08
5.12631311e-08
5.31584691e-08
5.6501829e-08
6.13810256e-08
6.77846262e-08
7.56572241e-08
8.49285237e-08
9.55277224e-08
1.07403542e-07
1.20509524e-07
1.34853562e-07
1.50436403e-07
1.67255653e-07
1.85305723e-07
2.04573832e-07
2.25042551e-07
2.4668804e-07
2.69479074e-07
2.93376208e-07
3.18330686e-07
3.44283079e-07
3.71161487e-07
3.98879212e-07
4.27331982e-07
4.56394925e-07
4.85919691e-07
5.15732159e-07
5.45631552e-07
5.75392013e-07
6.0477057e-07
6.33556203e-07
6.61213029e-07
6.87759381e-07
7.12791929e-07
7.36085389e-07
7.57424577e-07
7.76636626e-07
7.93595252e-07
8.08223347e-07
8.20492729e-07
8.3042091e-07
8.38065844e-07
8.43519985e-07
8.46903432e-07
8.48355787e-07
8.48029984e-07
8.46087866e-07
8.42695426e-07
8.38007016e-07
8.3217108e-07
8.25340753e-07
8.17658805e-07
8.09263587e-07
8.00250807e-07
7.90730129e-07
7.80822655e-07
7.7062378e-07
7.60267702e-07
7.49761314e-07
7.39156574e-07
7.28500944e-07
7.17880408e-07
7.07388669e-07
6.96939595e-07
6.86669497e-07
6.76567669e-07
6.66642051e-07
6.56957459e-07
6.47477565e-07
6.38265558e-07
6.29277502e-07
6.20561232e-07
6.12093868e-07
6.03875986e-07
5.95920953e-07
5.88160269e-07
5.80592644e-07
5.73187433e-07
5.65929881e-07
5.58821008e-07
5.51856362e-07
5.45061411e-07
5.3845096e-07
5.32033485e-07
5.25806569e-07
5.19748247e-07
5.13824098e-07
5.07994199e-07
5.02218964e-07
4.96464766e-07
4.90709066e-07
4.84942086e-07
4.79164281e-07
4.73377257e-07
4.67584379e-07
4.61843582e-07
4.56170686e-07
4.50566764e-07
4.45057056e-07
4.39663675e-07
4.34402885e-07
4.29286982e-07
4.24324061e-07
4.19517435e-07
4.1486468e-07
4.10356506e-07
4.05975657e-07
4.01696136e-07
3.97483428e-07
3.93296731e-07
3.89094343e-07
3.84842786e-07
3.80518083e-07
3.76145633e-07
3.71752214e-07
3.67379422e-07
3.63083589e-07
3.58919625e-07
3.54933817e-07
3.51159781e-07
3.47617828e-07
3.44317516e-07
3.41263382e-07
3.38465704e-07
3.3596162e-07
3.33861441e-07
3.32457427e-07
1.16694385e-07
9.32312014e-08
8.13490074e-08
7.36944223e-08
6.76532461e-08
6.22512081e-08
5.76711804e-08
5.41443886e-08
5.15765356e-08
4.97048353e-08
4.82629871e-08
4.70223667e-08
4.58843513e-08
4.48455895e-08
4.39363467e-08
4.31756549e-08
4.25588913e-08
4.20521998e-08
4.16082699e-08
4.11924905e-08
4.07938741e-08
4.04155136e-08
4.0066474e-08
3.97537629e-08
3.94776474e-08
3.92295715e-08
3.89982967e-08
3.87758825e-08
3.85601502e-08
3.83524051e-08
3.81547676e-08
3.79689961e-08
3.77968552e-08
3.76389121e-08
3.74944806e-08
3.7363189e-08
3.72465225e-08
3.71479478e-08
3.70709721e-08
3.70183176e-08
3.69910389e-08
3.69885946e-08
3.70088586e-08
3.70485055e-08
3.7104287e-08
3.71743158e-08
3.72585405e-08
3.73580827e-08
3.7474277e-08
3.76078573e-08
3.77586558e-08
3.7925743e-08
3.81076346e-08
3.83030538e-08
3.85112574e-08
3.87328005e-08
3.89690314e-08
3.92217783e-08
3.94926877e-08
3.97827849e-08
4.00926591e-08
4.042218e-08
4.07713426e-08
4.11397653e-08
4.15277512e-08
4.1935433e-08
4.23628626e-08
4.28099759e-08
4.32768413e-08
4.37634308e-08
4.42702813e-08
4.47982245e-08
4.53485753e-08
4.59226775e-08
4.6521711e-08
4.7146405e-08
4.77971653e-08
4.84733207e-08
4.91738216e-08
4.98974401e-08
5.0642821e-08
5.1408654e-08
5.21938616e-08
5.29977862e-08
5.38199901e-08
5.46604116e-08
5.5518612e-08
5.63939686e-08
5.72855008e-08
5.81917398e-08
5.91108435e-08
6.00406427e-08
6.09788208e-08
6.1923044e-08
6.28710925e-08
6.38208919e-08
6.47705469e-08
6.57185527e-08
6.66637551e-08
6.76048329e-08
6.8540694e-08
6.94701009e-08
7.03916769e-08
7.13038735e-08
7.22051597e-08
7.30935669e-08
7.39664359e-08
7.48203232e-08
7.56508452e-08
7.64528685e-08
7.72205936e-08
7.79462217e-08
7.86199311e-08
7.92290507e-08
7.97572161e-08
8.01843008e-08
8.0482333e-08
8.0615779e-08
8.05398408e-08
8.02014982e-08
7.95370529e-08
7.84832527e-08
7.69890925e-08
7.50374828e-08
7.26559582e-08
6.99327365e-08
6.70071802e-08
6.40387563e-08
6.11826608e-08
5.85680034e-08
5.62852731e-08
5.43705166e-08
5.28716857e-08
5.17910135e-08
5.10611551e-08
5.0689515e-08
5.06074943e-08
5.07880127e-08
5.11083255e-08
5.14231319e-08
5.16131958e-08
5.17384912e-08
5.2150737e-08
5.3420178e-08
5.5916805e-08
5.98201245e-08
6.51944119e-08
7.20243412e-08
8.02590026e-08
8.9840122e-08
1.00708969e-07
1.128196e-07
1.26122916e-07
1.40644047e-07
1.56384353e-07
1.73340683e-07
1.91506424e-07
2.10868959e-07
2.31410685e-07
2.53107706e-07
2.75928735e-07
2.99834105e-07
3.24774541e-07
3.50689649e-07
3.77506031e-07
4.05134922e-07
4.33469463e-07
4.62381807e-07
4.91720491e-07
5.21308509e-07
5.50942849e-07
5.8039646e-07
6.09426439e-07
6.3784935e-07
6.65058439e-07
6.91159936e-07
7.15726593e-07
7.38543413e-07
7.59405572e-07
7.78149788e-07
7.94658576e-07
8.08862291e-07
8.20738566e-07
8.30309126e-07
8.37634609e-07
8.42808497e-07
8.45950448e-07
8.47198792e-07
8.46704598e-07
8.44626972e-07
8.41128578e-07
8.36362242e-07
8.30472828e-07
8.23609529e-07
8.15910597e-07
8.07512125e-07
7.98512276e-07
7.89011928e-07
7.7912895e-07
7.68951903e-07
7.5862805e-07
7.4817024e-07
7.37608374e-07
7.26988047e-07
7.16399662e-07
7.05948684e-07
6.9554796e-07
6.85325152e-07
6.75260215e-07
6.65362554e-07
6.55712883e-07
6.46270795e-07
6.37090707e-07
6.28127564e-07
6.19435046e-07
6.10996967e-07
6.02807732e-07
5.94874479e-07
5.87133274e-07
5.795914e-07
5.72218212e-07
5.64993329e-07
5.57913226e-07
5.50975431e-07
5.44206987e-07
5.37621984e-07
5.3122568e-07
5.25014001e-07
5.18965956e-07
5.13048536e-07
5.0722314e-07
5.01451902e-07
4.95703208e-07
4.8995598e-07
4.84201148e-07
4.78439161e-07
4.72670666e-07
4.66887927e-07
4.61181678e-07
4.55530581e-07
4.49950142e-07
4.44463362e-07
4.39091694e-07
4.3385074e-07
4.28752414e-07
4.2380463e-07
4.19010665e-07
4.14368175e-07
4.09868068e-07
4.05493413e-07
4.01218701e-07
3.9701008e-07
3.92827597e-07
3.88630556e-07
3.84386783e-07
3.80075391e-07
3.75715653e-07
3.71338523e-07
3.66984879e-07
3.62709605e-07
3.58566389e-07
3.54600543e-07
3.5084499e-07
3.47319624e-07
3.4403381e-07
3.40992046e-07
3.38204687e-07
3.35708979e-07
3.33615222e-07
3.32215424e-07
2.70058571e-07
4.08223986e-07
4.77202268e-07
5.11484133e-07
5.26023687e-07
5.27907273e-07
5.21274112e-07
5.0917244e-07
4.93579441e-07
4.76321192e-07
4.58677391e-07
4.41349831e-07
4.24711887e-07
4.09032179e-07
3.94467662e-07
3.8106009e-07
3.68764259e-07
3.57520978e-07
3.47282856e-07
3.37987898e-07
3.29548687e-07
3.21887373e-07
3.14944833e-07
3.08662174e-07
3.02970893e-07
2.97811894e-07
2.93139337e-07
2.88908722e-07
2.85082293e-07
2.81622348e-07
2.78493945e-07
2.75666661e-07
2.73123347e-07
2.70847359e-07
2.68831175e-07
2.6708619e-07
2.65647201e-07
2.6469993e-07
2.6584936e-07
3.0601452e-07
1.90222907e-07
3.21966682e-07
4.05346392e-07
4.5855801e-07
4.9198374e-07
5.11739211e-07
5.21138303e-07
5.22529226e-07
5.17747459e-07
5.08645922e-07
4.96748826e-07
4.83097697e-07
4.68457502e-07
4.53465806e-07
4.38588125e-07
4.24122616e-07
4.10258608e-07
3.97115521e-07
3.84761691e-07
3.73228161e-07
3.62516295e-07
3.5260115e-07
3.4345151e-07
3.35035012e-07
3.27310785e-07
3.20227646e-07
3.13742639e-07
3.07814227e-07
3.02402065e-07
2.97468813e-07
2.92978259e-07
2.88892122e-07
2.85187091e-07
2.81843502e-07
2.78848562e-07
2.76206169e-07
2.73954049e-07
2.72143404e-07
2.71141605e-07
2.76437878e-07
1.36637007e-07
2.50523714e-07
3.34184213e-07
3.9432861e-07
4.37058222e-07
4.67000299e-07
4.87218997e-07
4.99601165e-07
5.05535537e-07
5.06313211e-07
5.03066704e-07
4.96701019e-07
4.8798003e-07
4.77599519e-07
4.66127407e-07
4.53994757e-07
4.41544179e-07
4.29065175e-07
4.16764824e-07
4.04785325e-07
3.93243837e-07
3.82228358e-07
3.71780493e-07
3.61921285e-07
3.5266868e-07
3.4402575e-07
3.35982262e-07
3.28516457e-07
3.21600217e-07
3.15208445e-07
3.0932169e-07
3.03913012e-07
2.9895475e-07
2.94422333e-07
2.9029784e-07
2.86564738e-07
2.83223889e-07
2.80256066e-07
2.77685932e-07
2.76056116e-07
1.22519762e-07
2.24013064e-07
3.03530514e-07
3.6390964e-07
4.08836842e-07
4.41620483e-07
4.64919676e-07
4.80692776e-07
4.90391539e-07
4.95142879e-07
4.9587155e-07
4.93339109e-07
4.88181542e-07
4.80966984e-07
4.72195786e-07
4.62286947e-07
4.51593351e-07
4.40424294e-07
4.2903258e-07
4.17616846e-07
4.06341099e-07
3.95338447e-07
3.84703336e-07
3.74504093e-07
3.64789109e-07
3.55594653e-07
3.46939319e-07