/*--------------------------------*- C++ -*----------------------------------*\
  =========                 |
  \\      /  F ield         | OpenFOAM: The Open Source CFD Toolbox
   \\    /   O peration     | Website:  https://openfoam.org
    \\  /    A nd           | Version:  6
     \\/     M anipulation  |
\*---------------------------------------------------------------------------*/
FoamFile
{
    version     2.0;
    format      ascii;
    class       volScalarField;
    location    "25000";
    object      NCO;
}
// * * * * * * * * * * * * * * * * * * * * * * * * * * * * * * * * * * * * * //

dimensions      [0 0 0 0 0 0 0];

internalField   nonuniform List<scalar> 
44870
(
3.15320333e-105
3.89452983e-103
4.78638767e-101
5.94881648e-99
7.48316788e-97
9.53320932e-95
1.23079042e-92
1.61143992e-90
2.14118811e-88
2.88937146e-86
3.9623466e-84
5.52518122e-82
7.83766384e-80
1.1314358e-77
1.66248106e-75
2.48667981e-73
3.78601071e-71
5.86682921e-69
9.25011419e-67
1.48358816e-64
2.41931582e-62
4.0099949e-60
6.75187473e-58
1.15444359e-55
2.00318459e-53
3.526152e-51
6.29192664e-49
1.13760722e-46
2.08194725e-44
3.85473744e-42
7.20842797e-40
1.36020491e-37
2.58217579e-35
4.9210231e-33
9.35614659e-31
1.76384701e-28
3.24792602e-26
5.72678688e-24
9.10641197e-22
1.22623332e-19
2.27678387e-105
2.79494479e-103
3.41804417e-101
4.23848303e-99
5.34099494e-97
6.85244155e-95
8.96943963e-93
1.19992562e-90
1.64325472e-88
2.30628356e-86
3.31996896e-84
4.9032371e-82
7.42857641e-80
1.15393488e-77
1.83600046e-75
2.98942913e-73
4.97344767e-71
8.44530698e-69
1.46124747e-66
2.57390694e-64
4.6078436e-62
8.3793605e-60
1.54530145e-57
2.89011327e-55
5.47208415e-53
1.04961311e-50
2.03540113e-48
3.99626632e-46
7.92364586e-44
1.59045013e-41
3.2204897e-39
6.60170148e-37
1.36330446e-34
2.85011835e-32
5.98596602e-30
1.26963429e-27
2.68116643e-25
5.65132981e-23
1.1137659e-20
2.08923104e-18
9.77696078e-106
1.1693723e-103
1.40780782e-101
1.75127067e-99
2.26955461e-97
3.08127812e-95
4.39920827e-93
6.61151179e-91
1.0438925e-88
1.72551892e-86
2.97034721e-84
5.29440833e-82
9.71534495e-80
1.82605299e-77
3.49843594e-75
6.81441275e-73
1.34395244e-70
2.68097747e-68
5.39367144e-66
1.09426319e-63
2.23431802e-61
4.59490318e-59
9.49706478e-57
1.97667643e-54
4.1311695e-52
8.699253e-50
1.83822846e-47
3.91733931e-45
8.37120062e-43
1.80689366e-40
3.90740639e-38
8.55082123e-36
1.87207745e-33
4.15901211e-31
9.23580925e-29
2.08717635e-26
4.70885187e-24
1.0898366e-21
2.42084968e-19
5.52590552e-17
2.03231092e-106
2.42941561e-104
3.29189328e-102
5.16849025e-100
9.25720601e-98
1.83618055e-95
3.90731307e-93
8.68950207e-91
1.98166589e-88
4.57681927e-86
1.06198617e-83
2.46362466e-81
5.69585142e-79
1.31074282e-76
2.9988516e-74
6.82273209e-72
1.54321506e-69
3.47323338e-67
7.7774166e-65
1.73430343e-62
3.85367301e-60
8.53939889e-58
1.88749392e-55
4.16660518e-53
9.18340991e-51
2.02433275e-48
4.45953249e-46
9.83736171e-44
2.16993246e-41
4.80047766e-39
1.06221057e-36
2.36075266e-34
5.24740269e-32
1.17327452e-29
2.62336069e-27
5.89727555e-25
1.3220789e-22
2.96796249e-20
6.44739373e-18
1.36230374e-15
2.61466825e-107
8.06940027e-105
2.71444409e-102
9.08486937e-100
2.93331893e-97
9.08321075e-95
2.70070142e-92
7.73403444e-90
2.14059276e-87
5.74571866e-85
1.50049511e-82
3.82381663e-80
9.53483338e-78
2.33211749e-75
5.60763009e-73
1.32820807e-70
3.10449718e-68
7.17214695e-66
1.64005582e-63
3.71683495e-61
8.35747935e-59
1.8663916e-56
4.14318156e-54
9.14980931e-52
2.0115549e-49
4.40537156e-47
9.61596717e-45
2.09264751e-42
4.54312476e-40
9.84114435e-38
2.12797486e-35
4.59391943e-33
9.90479136e-31
2.1329313e-28
4.58905143e-26
9.86490744e-24
2.11938559e-21
4.55059679e-19
9.76633258e-17
2.10614826e-14
3.90980444e-18
1.60426952e-17
4.11261739e-17
8.72665432e-17
1.69717943e-16
3.35655475e-16
7.01048679e-16
1.49106889e-15
3.06786112e-15
5.9691998e-15
1.09020391e-14
1.88108164e-14
3.08189458e-14
4.83666682e-14
7.31183147e-14
1.07037081e-13
1.52463399e-13
2.11895006e-13
2.88529199e-13
3.85476188e-13
5.0672861e-13
6.56355169e-13
8.39087337e-13
1.06023958e-12
1.32562067e-12
1.6419895e-12
2.01534887e-12
2.45547662e-12
2.96807843e-12
3.56559608e-12
4.25609485e-12
5.05104058e-12
5.96254834e-12
6.99968768e-12
8.17781844e-12
9.50466251e-12
1.09966168e-11
1.26609289e-11
1.45129155e-11
1.65613134e-11
1.8820686e-11
2.13029851e-11
2.4021071e-11
2.69839427e-11
3.02040357e-11
3.3683289e-11
3.74226588e-11
4.14217143e-11
4.56798063e-11
5.01977317e-11
5.49771609e-11
6.00218473e-11
6.53347775e-11
7.09192895e-11
7.67753334e-11
8.29013306e-11
8.92917577e-11
9.59399942e-11
1.0283806e-10
1.09978467e-10
1.17354134e-10
1.2495677e-10
1.32777449e-10
1.40802285e-10
1.49017068e-10
1.57399231e-10
1.65925736e-10
1.74561442e-10
1.83267452e-10
1.91988166e-10
2.00660666e-10
2.09210184e-10
2.17550443e-10
2.2559676e-10
2.33233824e-10
2.40360331e-10
2.46821414e-10
2.52472685e-10
2.57159157e-10
2.60747683e-10
2.63145353e-10
2.64325228e-10
2.64347436e-10
2.63354898e-10
2.61568194e-10
2.59257077e-10
2.56736627e-10
2.54320335e-10
2.5233568e-10
2.51120911e-10
2.51019275e-10
2.52402516e-10
2.55666425e-10
2.612556e-10
2.69624653e-10
2.81270112e-10
2.96734132e-10
3.16622586e-10
3.41622954e-10
3.72547721e-10
4.10352798e-10
4.56167027e-10
5.11337113e-10
5.77512321e-10
6.56665658e-10
7.51271656e-10
8.64397963e-10
9.99775709e-10
1.16221164e-09
1.35767799e-09
1.59382685e-09
1.88031511e-09
2.2293317e-09
2.65647191e-09
3.18151351e-09
3.82936868e-09
4.63104975e-09
5.62445308e-09
6.85451934e-09
8.3718229e-09
1.02282473e-08
1.2467429e-08
1.51075242e-08
1.8116157e-08
2.13857024e-08
2.47277485e-08
2.79039072e-08
3.06869773e-08
3.29241964e-08
3.4566913e-08
3.56585258e-08
3.63001427e-08
3.66254116e-08
3.67745563e-08
3.68744887e-08
3.70446923e-08
3.73861462e-08
3.79941662e-08
3.89581486e-08
4.03344414e-08
4.23990312e-08
4.51359626e-08
4.81405018e-08
5.02083401e-08
4.94756889e-08
4.49788358e-08
3.79141455e-08
3.01865956e-08
2.31883023e-08
1.73555284e-08
1.27895816e-08
9.34651495e-09
6.80946014e-09
4.95750204e-09
3.61063698e-09
2.63600574e-09
1.9368168e-09
1.43302757e-09
1.06690176e-09
7.99309612e-10
6.0313731e-10
4.59557286e-10
3.56418972e-10
2.82843204e-10
2.30306322e-10
1.92596154e-10
1.6528893e-10
1.4523597e-10
1.30203837e-10
1.18631672e-10
1.09447824e-10
1.0193577e-10
9.56325419e-11
9.02523568e-11
8.56155895e-11
8.16131932e-11
7.82050793e-11
7.53684645e-11
7.30874008e-11
7.13467595e-11
7.01269583e-11
6.94010429e-11
6.91336892e-11
6.92814772e-11
6.97938672e-11
7.06147001e-11
7.16843586e-11
7.29421002e-11
7.4327174e-11
7.57805932e-11
7.72455377e-11
7.86784589e-11
8.00328806e-11
8.12700461e-11
8.23568659e-11
8.32675097e-11
8.39867701e-11
8.44965044e-11
8.47891844e-11
8.48621388e-11
8.47116996e-11
8.43481575e-11
8.37738426e-11
8.30040082e-11
8.2050351e-11
8.0915612e-11
7.96136673e-11
7.81651288e-11
7.65926258e-11
7.49032232e-11
7.31027458e-11
7.12086525e-11
6.92481616e-11
6.72363592e-11
6.5179289e-11
6.3076359e-11
6.0945392e-11
5.87994574e-11
5.66486593e-11
5.44971707e-11
5.23412284e-11
5.01953374e-11
4.80747283e-11
4.59824245e-11
4.39243556e-11
4.19069401e-11
3.99377294e-11
3.80205091e-11
3.61541786e-11
3.43380525e-11
3.25736312e-11
3.08636113e-11
2.92113065e-11
2.76203505e-11
2.60940958e-11
2.46349814e-11
2.32437617e-11
2.19175709e-11
2.06590562e-11
1.94678436e-11
1.83406994e-11
1.72744146e-11
1.62657115e-11
1.531137e-11
1.44082876e-11
1.35536515e-11
1.27433589e-11
1.19745477e-11
1.12445741e-11
1.05511593e-11
9.89257527e-12
9.26782412e-12
8.67673636e-12
8.11989804e-12
7.59826657e-12
7.11148863e-12
6.66253907e-12
6.24921523e-12
5.86935453e-12
5.52034193e-12
5.19915007e-12
4.9026252e-12
4.62772417e-12
4.3717065e-12
4.13233797e-12
3.90820061e-12
3.69934328e-12
3.50876751e-12
3.34597783e-12
3.23530656e-12
8.06684183e-17
2.83007732e-16
6.2923353e-16
1.20635895e-15
2.21519348e-15
4.52978125e-15
1.00956537e-14
2.2115531e-14
4.49208953e-14
8.40363226e-14
1.45690499e-13
2.3740372e-13
3.6710209e-13
5.44315903e-13
7.78897999e-13
1.08141579e-12
1.46334306e-12
1.93522472e-12
2.509714e-12
3.1964423e-12
4.00737439e-12
4.9525452e-12
6.04123312e-12
7.28437781e-12
8.6861612e-12
1.02569964e-11
1.19967467e-11
1.39129625e-11
1.60020918e-11
1.82674678e-11
2.07030799e-11
2.33052859e-11
2.60640365e-11
2.89688e-11
3.20069219e-11
3.51634193e-11
3.84266305e-11
4.1782141e-11
4.52239832e-11
4.87426513e-11
5.23378379e-11
5.60038998e-11
5.97408424e-11
6.35417785e-11
6.74113227e-11
7.134662e-11
7.53522682e-11
7.94392877e-11
8.36242022e-11
8.79271588e-11
9.23687496e-11
9.69677744e-11
1.01738818e-10
1.06693064e-10
1.11839397e-10
1.17188007e-10
1.22751421e-10
1.28545519e-10
1.34586376e-10
1.40887268e-10
1.47454213e-10
1.54284367e-10
1.61365306e-10
1.68676398e-10
1.76191018e-10
1.83873075e-10
1.9168444e-10
1.99577313e-10
2.07502379e-10
2.15403352e-10
2.23226411e-10
2.30916197e-10
2.38412614e-10
2.45652377e-10
2.52537289e-10
2.58965877e-10
2.64780873e-10
2.69832776e-10
2.73969201e-10
2.77074626e-10
2.79085563e-10
2.80017509e-10
2.79974356e-10
2.79132724e-10
2.77730947e-10
2.76039698e-10
2.74357684e-10
2.72974284e-10
2.72194693e-10
2.72346719e-10
2.73766831e-10
2.76830972e-10
2.81976966e-10
2.8965738e-10
3.00365122e-10
3.14636748e-10
3.3305712e-10
3.56279353e-10
3.85044357e-10
4.20230505e-10
4.62861216e-10
5.14142874e-10
5.75515289e-10
6.4873811e-10
7.3590762e-10
8.39659693e-10
9.63232857e-10
1.11056371e-09
1.28671411e-09
1.4979517e-09
1.75224605e-09
2.05962497e-09
2.43273486e-09
2.88761673e-09
3.44449901e-09
4.1287133e-09
4.97153846e-09
6.01083416e-09
7.29097207e-09
8.86106782e-09
1.07702886e-08
1.30579319e-08
1.57361017e-08
1.87652621e-08
2.20321262e-08
2.53470974e-08
2.8477235e-08
3.12046281e-08
3.33868233e-08
3.49828647e-08
3.60401152e-08
3.66597797e-08
3.69756478e-08
3.71268856e-08
3.72370457e-08
3.74249526e-08
3.77879162e-08
3.84194859e-08
3.9406159e-08
4.08359134e-08
4.29333367e-08
4.56468075e-08
4.85048575e-08
5.02792407e-08
4.91685415e-08
4.44107886e-08
3.72918055e-08
2.96434054e-08
2.27648471e-08
1.70520272e-08
1.25806944e-08
9.20663313e-09
6.71808386e-09
4.89814742e-09
3.57252285e-09
2.61171286e-09
1.9214086e-09
1.42298939e-09
1.06027668e-09
7.94937177e-10
6.00298697e-10
4.57796155e-10
3.55424702e-10
2.8236244e-10
2.30164782e-10
1.92672732e-10
1.65497642e-10
1.45519179e-10
1.30523912e-10
1.1896511e-10
1.09780875e-10
1.02261291e-10
9.59478084e-11
9.05577584e-11
8.59119902e-11
8.1901663e-11
7.84885906e-11
7.56490306e-11
7.33663793e-11
7.16249133e-11
7.04044429e-11
6.96774396e-11
6.94080942e-11
6.95526188e-11
7.00601947e-11
7.08744725e-11
7.19357988e-11
7.3183572e-11
7.45571583e-11
7.59976341e-11
7.74482824e-11
7.88661203e-11
8.02051859e-11
8.14265861e-11
8.24970296e-11
8.33915248e-11
8.40955337e-11
8.45909927e-11
8.48698072e-11
8.49294299e-11
8.47667279e-11
8.43916599e-11
8.38067194e-11
8.30276214e-11
8.20657631e-11
8.09231962e-11
7.96133593e-11
7.81582968e-11
7.65814276e-11
7.48880917e-11
7.30830429e-11
7.11843258e-11
6.92210927e-11
6.72085231e-11
6.5150578e-11
6.30457824e-11
6.09129738e-11
5.87668467e-11
5.66161885e-11
5.44657915e-11
5.23096734e-11
5.0164028e-11
4.80445813e-11
4.59537053e-11
4.38966622e-11
4.18800267e-11
3.99116602e-11
3.79953523e-11
3.61297688e-11
3.43141762e-11
3.25502566e-11
3.08408373e-11
2.91892353e-11
2.759906e-11
2.60736717e-11
2.46155166e-11
2.32253544e-11
2.19001815e-11
2.06427369e-11
1.94525891e-11
1.83264717e-11
1.72611455e-11
1.62533327e-11
1.5299819e-11
1.4397507e-11
1.35435767e-11
1.27339399e-11
1.19657431e-11
1.12363492e-11
1.05434861e-11
9.88543173e-12
9.26119276e-12
8.67060148e-12
8.11424225e-12
7.59306526e-12
7.10668737e-12
6.65821176e-12
6.2452348e-12
5.86569385e-12
5.51697015e-12
5.19603532e-12
4.89973787e-12
4.62503758e-12
4.36919679e-12
4.12998431e-12
3.90598581e-12
3.69725271e-12
3.50678747e-12
3.34409159e-12
3.23348437e-12
3.03432975e-15
9.20559593e-15
1.81835588e-14
3.20362252e-14
5.67106828e-14
1.2891026e-13
3.07866888e-13
6.60176756e-13
1.24658116e-12
2.1178059e-12
3.30949375e-12
4.85282471e-12
6.76942781e-12
9.07769135e-12
1.17822431e-11
1.48784501e-11
1.83481312e-11
2.21597372e-11
2.62784134e-11
3.06629038e-11
3.52747001e-11
4.00714851e-11
4.50090176e-11
5.00405625e-11
5.51139553e-11
6.01830468e-11
6.51949813e-11
7.01163109e-11
7.49099363e-11
7.95582701e-11
8.40452172e-11
8.83586507e-11
9.24870177e-11
9.64229945e-11
1.00161685e-10
1.03711492e-10
1.07093531e-10
1.10344802e-10
1.1351087e-10
1.16634185e-10
1.19751054e-10
1.22880936e-10
1.26035538e-10
1.2921216e-10
1.32427273e-10
1.35695869e-10
1.39052249e-10
1.42540015e-10
1.46199065e-10
1.50053769e-10
1.54105802e-10
1.58337702e-10
1.62721426e-10
1.67233659e-10
1.71869209e-10
1.76647824e-10
1.81608837e-10
1.86797744e-10
1.92249268e-10
1.97976194e-10
2.03966717e-10
2.10191611e-10
2.1661154e-10
2.23186845e-10
2.29872406e-10
2.36619019e-10
2.4337892e-10
2.50100406e-10
2.56742766e-10
2.63279418e-10
2.69705157e-10
2.7602419e-10
2.82231651e-10
2.88295132e-10
2.94122004e-10
2.9958705e-10
3.04510604e-10
3.08731146e-10
3.12114704e-10
3.14600254e-10
3.16208979e-10
3.17056344e-10
3.17337152e-10
3.17289751e-10
3.17176487e-10
3.17257112e-10
3.17786293e-10
3.19007442e-10
3.21193353e-10
3.24652985e-10
3.29729247e-10
3.36860958e-10
3.46518968e-10
3.59228581e-10
3.75566468e-10
3.9615803e-10
4.21683021e-10
4.52899529e-10
4.90668564e-10
5.36015467e-10
5.90111912e-10
6.54339421e-10
7.30348691e-10
8.20147542e-10
9.26113202e-10
1.0512388e-09
1.19914498e-09
1.3742394e-09
1.58213033e-09
1.82973956e-09
2.12572874e-09
2.48097279e-09
2.9090224e-09
3.42684163e-09
4.05557192e-09
4.8213226e-09
5.75573731e-09
6.89629623e-09
8.2857466e-09
9.96955263e-09
1.19905119e-08
1.43781749e-08
1.71315457e-08
2.01961064e-08
2.34479443e-08
2.66968471e-08
2.97233035e-08
3.23292483e-08
3.43934614e-08
3.58908017e-08
3.68762522e-08
3.74503198e-08
3.77476967e-08
3.79051793e-08
3.80379698e-08
3.82644517e-08
3.86725493e-08
3.93522893e-08
4.03804857e-08
4.19335697e-08
4.408733e-08
4.66939667e-08
4.92040472e-08
5.03048728e-08
4.8385552e-08
4.31291634e-08
3.59389919e-08
2.8480902e-08
2.18614862e-08
1.64058919e-08
1.21354975e-08
8.90798454e-09
6.523013e-09
4.77153677e-09
3.49137532e-09
2.55994292e-09
1.88837032e-09
1.40138591e-09
1.04599103e-09
7.85504068e-10
5.94181338e-10
4.54016199e-10
3.53306611e-10
2.8135206e-10
2.29883447e-10
1.92860895e-10
1.65969999e-10
1.4615098e-10
1.31233879e-10
1.19702558e-10
1.10516293e-10
1.02979454e-10
9.66430251e-11
9.12311637e-11
8.65654324e-11
8.25374168e-11
7.91135289e-11
7.62673845e-11
7.39810757e-11
7.22375814e-11
7.10153782e-11
7.02856905e-11
7.00116635e-11
7.01487072e-11
7.06453977e-11
7.14449878e-11
7.24877352e-11
7.37133116e-11
7.50614185e-11
7.64733822e-11
7.7893183e-11
7.92771299e-11
8.05820616e-11
8.17687499e-11
8.28038044e-11
8.36629983e-11
8.4333166e-11
8.47969971e-11
8.50455729e-11
8.50763495e-11
8.48864683e-11
8.44865159e-11
8.38788282e-11
8.30788949e-11
8.20979044e-11
8.09380427e-11
7.96131278e-11
7.81449129e-11
7.65564216e-11
7.48522087e-11
7.30381167e-11
7.1132384e-11
6.91635944e-11
6.71466064e-11
6.50847805e-11
6.29773785e-11
6.08430535e-11
5.86980947e-11
5.65457223e-11
5.43946375e-11
5.2239647e-11
5.00957967e-11
4.7978348e-11
4.5889602e-11
4.38347127e-11
4.18203933e-11
3.98542039e-11
3.79397109e-11
3.60756342e-11
3.42613677e-11
3.24987531e-11
3.07907272e-11
2.91406702e-11
2.75522282e-11
2.60287815e-11
2.45727593e-11
2.31849154e-11
2.18619919e-11
2.06068843e-11
1.94190834e-11
1.8295219e-11
1.72319943e-11
1.62261349e-11
1.52744391e-11
1.43738204e-11
1.35214405e-11
1.27132449e-11
1.19463993e-11
1.12182808e-11
1.05266311e-11
9.86974135e-12
9.24662788e-12
8.65712698e-12
8.10181951e-12
7.5816382e-12
7.09639986e-12
6.64871818e-12
6.23648758e-12
5.85764937e-12
5.50956054e-12
5.18919085e-12
4.89339321e-12
4.61913374e-12
4.36368167e-12
4.1248129e-12
3.90111996e-12
3.69265979e-12
3.50243732e-12
3.33994809e-12
3.22948284e-12
1.21901039e-13
2.87908464e-13
4.95005915e-13
7.68419708e-13
1.32070677e-12
3.66498951e-12
8.71930481e-12
1.65346615e-11
2.65924984e-11
3.81734034e-11
5.06096669e-11
6.35660607e-11
7.68076116e-11
9.00993261e-11
1.03130092e-10
1.15593748e-10
1.27184401e-10
1.37695537e-10
1.47087009e-10
1.55426074e-10
1.62808251e-10
1.69284507e-10
1.74875791e-10
1.79567708e-10
1.83368126e-10
1.86307407e-10
1.8850075e-10
1.90138655e-10
1.91416448e-10
1.92508166e-10
1.93509763e-10
1.94446672e-10
1.95304523e-10
1.9606312e-10
1.96738604e-10
1.97419613e-10
1.98255968e-10
1.99403386e-10
2.00955565e-10
2.0291172e-10
2.05189656e-10
2.07659538e-10
2.10201384e-10
2.12742215e-10
2.15328893e-10
2.18074823e-10
2.21129931e-10
2.24597174e-10
2.28480929e-10
2.32684299e-10
2.37048995e-10
2.41415692e-10
2.45681739e-10
2.49842456e-10
2.53993549e-10
2.582919e-10
2.62887369e-10
2.67863387e-10
2.73212033e-10
2.78850408e-10
2.84664129e-10
2.90551324e-10
2.96442646e-10
3.0229393e-10
3.08064152e-10
3.1370629e-10
3.19180158e-10
3.24462434e-10
3.29576914e-10
3.34596838e-10
3.39633061e-10
3.44786996e-10
3.50097965e-10
3.5550884e-10
3.60851973e-10
3.6591206e-10
3.70455793e-10
3.74323706e-10
3.77454595e-10
3.79915498e-10
3.81897293e-10
3.83672424e-10
3.85550841e-10
3.8782448e-10
3.90754215e-10
3.94550814e-10
3.99394584e-10
4.05455949e-10
4.13013135e-10
4.22385432e-10
4.3398489e-10
4.4832428e-10
4.65988692e-10
4.87631792e-10
5.13967879e-10
5.45762407e-10
5.83842381e-10
6.29129075e-10
6.82673781e-10
7.45725754e-10
8.19685568e-10
9.06215513e-10
1.00730286e-09
1.12534726e-09
1.26318485e-09
1.42433773e-09
1.61304514e-09
1.83446225e-09
2.09500308e-09
2.40256313e-09
2.7669097e-09
3.20007221e-09
3.71682927e-09
4.33536798e-09
5.07792696e-09
5.97137612e-09
7.04727213e-09
8.34168779e-09
9.89391175e-09
1.17427256e-08
1.3920355e-08
1.64412498e-08
1.92853881e-08
2.2377729e-08
2.55832732e-08
2.87157819e-08
3.15795574e-08
3.40042138e-08
3.58973148e-08
3.72547057e-08
3.81405846e-08
3.86516419e-08
3.89262194e-08
3.90971329e-08
3.92636554e-08
3.95472351e-08
4.00168426e-08
4.07584664e-08
4.19311807e-08
4.36082326e-08
4.5745162e-08
4.810245e-08
4.99716576e-08
4.99927772e-08
4.69601881e-08
4.11238118e-08
3.39384675e-08
2.68032303e-08
2.05585596e-08
1.54786462e-08
1.14950854e-08
8.4769996e-09
6.24173112e-09
4.59010304e-09
3.37508048e-09
2.48558929e-09
1.84038566e-09
1.36981235e-09
1.02504574e-09
7.7166426e-10
5.85226864e-10
4.48527891e-10
3.50272402e-10
2.79942121e-10
2.29535561e-10
1.93199485e-10
1.66723295e-10
1.47134677e-10
1.32328515e-10
1.20833817e-10
1.11641312e-10
1.04076405e-10
9.77040653e-11
9.22587897e-11
8.75588103e-11
8.35066867e-11
8.00666032e-11
7.72101326e-11
7.49177906e-11
7.31706071e-11
7.19450509e-11
7.121049e-11
7.09285194e-11
7.10533515e-11
7.15326777e-11
7.23092012e-11
7.33230638e-11
7.4514298e-11
7.58231935e-11
7.71914583e-11
7.85639201e-11
7.98966269e-11
8.11493891e-11
8.22831743e-11
8.32653097e-11
8.40712793e-11
8.46899733e-11
8.51056292e-11
8.5308541e-11
8.52964295e-11
8.50652753e-11
8.46282398e-11
8.39865454e-11
8.31545042e-11
8.21435607e-11
8.09577691e-11
7.96122816e-11
7.81253005e-11
7.6517122e-11
7.47942927e-11
7.2967843e-11
7.10544368e-11
6.90778244e-11
6.705127e-11
6.4981718e-11
6.28720023e-11
6.07378257e-11
5.85920921e-11
5.64382035e-11
5.42847216e-11
5.21323285e-11
4.9992396e-11
4.7877573e-11
4.57909936e-11
4.37392677e-11
4.17290786e-11
3.97665819e-11
3.78547379e-11
3.59928354e-11
3.41807533e-11
3.24203635e-11
3.07145777e-11
2.90669031e-11
2.74811381e-11
2.59607016e-11
2.45079571e-11
2.31236275e-11
2.18041239e-11
2.055258e-11
1.93683448e-11
1.82478851e-11
1.71878349e-11
1.61849281e-11
1.52359834e-11
1.43379304e-11
1.34878966e-11
1.26818847e-11
1.19170881e-11
1.1190904e-11
1.05010948e-11
9.84597117e-12
9.22456382e-12
8.63671495e-12
8.08300065e-12
7.56433884e-12
7.0808266e-12
6.63430578e-12
6.22322574e-12
5.84545476e-12
5.49832781e-12
5.17881421e-12
4.88377344e-12
4.61018125e-12
4.35531811e-12
4.11697082e-12
3.89374139e-12
3.68569487e-12
3.49584036e-12
3.33366494e-12
3.22341616e-12
4.73135024e-12
6.79083761e-12
8.45131217e-12
1.07430781e-11
2.01652944e-11
7.89230871e-11
1.64177151e-10
2.47761279e-10
3.14168654e-10
3.59396434e-10
3.87148375e-10
4.06822177e-10
4.21975652e-10
4.32381294e-10
4.3705473e-10
4.35703802e-10
4.29012678e-10
4.18670475e-10
4.07612701e-10
3.97694469e-10
3.8906186e-10
3.80955376e-10
3.72558629e-10
3.63427719e-10
3.53569054e-10
3.43455037e-10
3.34157596e-10
3.26717531e-10
3.21511631e-10
3.18125957e-10
3.1576908e-10
3.13681303e-10
3.11380932e-10
3.08776608e-10
3.06234976e-10
3.04527727e-10
3.04385049e-10
3.06018501e-10
3.09027049e-10
3.12654172e-10
3.1614064e-10
3.18972419e-10
3.21026478e-10
3.22588617e-10
3.24350452e-10
3.27016525e-10
3.30959872e-10
3.36028912e-10
3.41662153e-10
3.4717066e-10
3.52009805e-10
3.55951421e-10
3.59136017e-10
3.62020192e-10
3.65199026e-10
3.69159185e-10
3.74081743e-10
3.79810353e-10
3.85973629e-10
3.92171479e-10
3.98128359e-10
4.03753315e-10
4.09077661e-10
4.14136048e-10
4.18925034e-10
4.23398437e-10
4.27544631e-10
4.3144039e-10
4.35290101e-10
4.39381148e-10
4.44006085e-10
4.49332729e-10
4.55316316e-10
4.61698347e-10
4.68086984e-10
4.7410676e-10
4.79495268e-10
4.84188021e-10
4.88328684e-10
4.92243342e-10
4.963912e-10
5.01244479e-10
5.07213106e-10
5.14567427e-10
5.23518366e-10
5.34158384e-10
5.46564916e-10
5.6088267e-10
5.77397379e-10
5.96535813e-10
6.18861244e-10
6.45057685e-10
6.75895798e-10
7.12225624e-10
7.54960844e-10
8.05063197e-10
8.63559668e-10
9.31599839e-10
1.01050119e-09
1.10179393e-09
1.20721795e-09
1.32883683e-09
1.46911201e-09
1.63099543e-09
1.81798563e-09
2.03429738e-09
2.28505313e-09
2.57641342e-09
2.91587521e-09
3.31256918e-09
3.77765587e-09
4.32451428e-09
4.96922344e-09
5.73115835e-09
6.63338237e-09
7.70290913e-09
8.96986813e-09
1.04668834e-08
1.22268938e-08
1.42778765e-08
1.66368421e-08
1.9298283e-08
2.22192487e-08
2.53016862e-08
2.84055843e-08
3.13575112e-08
3.39987632e-08
3.61887271e-08
3.78680689e-08
3.90556475e-08
3.9824472e-08
4.02602282e-08
4.05127867e-08
4.07078766e-08
4.09152724e-08
4.1271209e-08
4.18057431e-08
4.27242329e-08
4.40473432e-08
4.57689349e-08
4.77479744e-08
4.95846513e-08
5.04000709e-08
4.89568036e-08
4.4709426e-08
3.84043001e-08
3.1389667e-08
2.47237475e-08
1.89795661e-08
1.4330149e-08
1.06972219e-08
7.93804191e-09
5.89352625e-09
4.3663341e-09
3.23156724e-09
2.39331573e-09
1.77999091e-09
1.32976278e-09
9.98374615e-10
7.54034592e-10
5.73865855e-10
4.41657674e-10
3.46544738e-10
2.78281071e-10
2.29220473e-10
1.93749639e-10
1.67797087e-10
1.48495249e-10
1.33823269e-10
1.22368351e-10
1.13161776e-10
1.05555945e-10
9.91336141e-11
9.36431839e-11
8.8894965e-11
8.48117834e-11
8.13494597e-11
7.84784645e-11
7.617711e-11
7.44238117e-11
7.31923896e-11
7.24497975e-11
7.21556098e-11
7.22624704e-11
7.27169783e-11
7.34612383e-11
7.4435256e-11
7.55793895e-11
7.68347777e-11
7.81438718e-11
7.94526617e-11
8.07169264e-11
8.18993918e-11
8.29619567e-11
8.38742278e-11
8.46100773e-11
8.51600432e-11
8.55110535e-11
8.56530868e-11
8.55846515e-11
8.52992033e-11
8.48130598e-11
8.41264481e-11
8.32512233e-11
8.21997256e-11
8.098029e-11
7.96090386e-11
7.80980986e-11
7.64620557e-11
7.47130365e-11
7.28716837e-11
7.09502239e-11
6.89637595e-11
6.69220678e-11
6.48410192e-11
6.27297676e-11
6.05975569e-11
5.84505731e-11
5.62912676e-11
5.41354526e-11
5.19878301e-11
4.9853886e-11
4.77420117e-11
4.56573873e-11
4.36098695e-11
4.16056717e-11
3.9648345e-11
3.77399286e-11
3.58809064e-11
3.40719833e-11
3.23148573e-11
3.0612264e-11
2.8967923e-11
2.73859015e-11
2.58696479e-11
2.44213912e-11
2.30417837e-11
2.17268583e-11
2.04801871e-11
1.93007229e-11
1.81847908e-11
1.71289609e-11
1.61299826e-11
1.51847019e-11
1.42900709e-11
1.34431591e-11
1.26400589e-11
1.18779967e-11
1.11543952e-11
1.04670434e-11
9.81427739e-12
9.1951468e-12
8.60950149e-12
8.05791164e-12
7.54127948e-12
7.05987384e-12
6.61504779e-12
6.20552825e-12
5.82918353e-12
5.48333841e-12
5.16496526e-12
4.87093249e-12
4.59822891e-12
4.34415059e-12
4.10649906e-12
3.88388804e-12
3.6763933e-12
3.48702983e-12
3.32527372e-12
3.21531466e-12
1.12854927e-10
7.2492337e-11
5.80130847e-11
7.0047229e-11
2.12497849e-10
1.14062855e-09
1.62697227e-09
1.65842422e-09
1.4678641e-09
1.22481199e-09
1.02794026e-09
9.4405987e-10
9.01182253e-10
8.53456457e-10
7.91243232e-10
7.20671873e-10
6.51131027e-10
5.93089166e-10
5.59896662e-10
5.44333132e-10
5.32758918e-10
5.17268772e-10
4.96463715e-10
4.72429651e-10
4.48206822e-10
4.27378768e-10
4.14606513e-10
4.1115372e-10
4.13279098e-10
4.16084337e-10
4.1645026e-10
4.13485741e-10
4.07883681e-10
4.01348757e-10
3.96451934e-10
3.95968114e-10
4.00690992e-10
4.08785563e-10
4.17303181e-10
4.23860269e-10
4.27384756e-10
4.28056241e-10
4.27036885e-10
4.26143479e-10
4.27501658e-10
4.32239726e-10
4.39849856e-10
4.48602861e-10
4.56579307e-10
4.6248581e-10
4.65962776e-10
4.67520416e-10
4.68288404e-10
4.6966141e-10
4.72780213e-10
4.78057202e-10
4.85067442e-10
4.92875971e-10
5.00530245e-10
5.07427955e-10
5.13434543e-10
5.18791239e-10
5.23777719e-10
5.2848029e-10
5.32837821e-10
5.3675902e-10
5.40303959e-10
5.43741791e-10
5.4755402e-10
5.52267799e-10
5.58284919e-10
5.65666177e-10
5.74080827e-10
5.8292234e-10
5.91562187e-10
5.99536731e-10
6.06680046e-10
6.13140708e-10
6.19351452e-10
6.25920899e-10
6.33563109e-10
6.42869513e-10
6.54259688e-10
6.67931649e-10
6.83922935e-10
7.02215546e-10
7.22820203e-10
7.45904709e-10
7.71848749e-10
8.01226601e-10
8.34779273e-10
8.73376855e-10
9.17977703e-10
9.69614017e-10
1.02937774e-09
1.09840416e-09
1.17787805e-09
1.26915065e-09
1.3737466e-09
1.49342544e-09
1.63023835e-09
1.78659951e-09
1.96538324e-09
2.17002271e-09
2.40458441e-09
2.67388117e-09
2.98374697e-09
3.34115114e-09
3.75444039e-09
4.23365018e-09
4.79094811e-09
5.44048421e-09
6.1989433e-09
7.0861018e-09
8.12491058e-09
9.34151509e-09
1.07633846e-08
1.24187726e-08
1.43339037e-08
1.65263495e-08
1.90004066e-08
2.17354386e-08
2.46733257e-08
2.77014651e-08
3.06864534e-08
3.34703644e-08
3.59294401e-08
3.79359949e-08
3.94545143e-08
4.05187557e-08
4.12059578e-08
4.15850117e-08
4.18267929e-08
4.20468945e-08
4.22786293e-08
4.26883618e-08
4.33440176e-08
4.43759104e-08
4.57593563e-08
4.74174779e-08
4.91071704e-08
5.03064778e-08
5.0099523e-08
4.75602521e-08
4.2632251e-08
3.62088675e-08
2.94467229e-08
2.31766521e-08
1.78201014e-08
1.34938644e-08
1.01126802e-08
7.53896829e-09
5.63487728e-09
4.19990838e-09
3.12445075e-09
2.32366002e-09
1.73379981e-09
1.29888074e-09
9.77727886e-10
7.40394363e-10
5.65132767e-10
4.36488777e-10
3.4380258e-10
2.771359e-10
2.29112797e-10
1.94302901e-10
1.68749432e-10
1.49662368e-10
1.35086677e-10
1.23655354e-10
1.14431467e-10
1.06788537e-10
1.00323007e-10
9.47953308e-11
9.000673e-11
8.58968733e-11
8.2415578e-11
7.95318145e-11
7.72219915e-11
7.54623731e-11
7.42246426e-11
7.34738193e-11
7.31678564e-11
7.32581628e-11
7.36905428e-11
7.44067308e-11
7.53466572e-11
7.64508558e-11
7.76610567e-11
7.8920628e-11
8.01764858e-11
8.13846104e-11
8.25091294e-11
8.35132258e-11
8.43674173e-11
8.50464006e-11
8.55406324e-11
8.58389639e-11
8.59309786e-11
8.58160968e-11
8.54871458e-11
8.49601558e-11
8.42363372e-11
8.33268137e-11
8.22440387e-11
8.0997193e-11
7.96023476e-11
7.80704733e-11
7.64146231e-11
7.4647703e-11
7.2792892e-11
7.0861205e-11
6.88658175e-11
6.68156531e-11
6.47279865e-11
6.2613363e-11
6.04793551e-11
5.83309512e-11
5.61701846e-11
5.40142327e-11
5.18687916e-11
4.97378769e-11
4.76285309e-11
4.55467445e-11
4.35028333e-11
4.1502672e-11
3.95490534e-11
3.76437123e-11
3.57874628e-11
3.3981251e-11
3.2226832e-11
3.05270479e-11
2.88857616e-11
2.73070994e-11
2.57944773e-11
2.43500438e-11
2.29743841e-11
2.16632503e-11
2.04207598e-11
1.92452107e-11
1.81329887e-11
1.70806163e-11
1.60848574e-11
1.51425813e-11
1.42507618e-11
1.34064069e-11
1.26056988e-11
1.18458851e-11
1.1124408e-11
1.0439078e-11
9.78825178e-12
9.17099385e-12
8.5871599e-12
8.03731544e-12
7.52235155e-12
7.04260309e-12
6.59920913e-12
6.1909835e-12
5.81581071e-12
5.47101579e-12
5.15357628e-12
4.86036934e-12
4.58839459e-12
4.33495998e-12
4.09787901e-12
3.87577592e-12
3.66873547e-12
3.47977645e-12
3.31836546e-12
3.2086456e-12
1.39639016e-13
1.95704637e-13
2.14479017e-13
2.17439261e-13
2.13053281e-13
2.04919945e-13
1.94884801e-13
1.84121972e-13
1.73273919e-13
1.62856549e-13
1.53172029e-13
1.4433098e-13
1.36333139e-13
1.29144793e-13
1.22720327e-13
1.17001083e-13
1.11911427e-13
1.07374714e-13
1.03332762e-13
9.97348767e-14
9.65262198e-14
9.36575078e-14
9.10922409e-14
8.87988646e-14
8.67440957e-14
8.48988954e-14
8.32413452e-14
8.17513946e-14
8.04124427e-14
7.92088312e-14
7.8126226e-14
7.71521694e-14
7.62795391e-14
7.55017983e-14
7.48190455e-14
7.43872554e-14
8.10927097e-14
3.96006122e-13
1.35663532e-11
4.89250297e-10
9.05241303e-14
1.48240967e-13
1.80097586e-13
1.96894902e-13
2.04559389e-13
2.06442984e-13
2.04296074e-13
1.99319224e-13
1.92405774e-13
1.84392345e-13
1.75915925e-13
1.67373947e-13
1.59025543e-13
1.51055955e-13
1.43575267e-13
1.36633753e-13
1.30245691e-13
1.24398174e-13
1.19065816e-13
1.14219926e-13
1.09827361e-13
1.05847563e-13
1.02243504e-13
9.89840186e-14
9.60383993e-14
9.33736882e-14
9.09631009e-14
8.8782692e-14
8.68108567e-14
8.50287465e-14
8.34189556e-14
8.19638247e-14
8.06521755e-14
7.94748722e-14
7.84263528e-14
7.7536966e-14
7.8115935e-14
1.32128585e-13
2.08331627e-12
5.49365572e-11
6.03396555e-14
1.09480679e-13
1.43507776e-13
1.66015242e-13
1.80259415e-13
1.88683922e-13
1.92884745e-13
1.93844214e-13
1.92281871e-13
1.88843978e-13
1.84071999e-13
1.7838101e-13
1.7210748e-13
1.65540002e-13
1.58894337e-13
1.52319876e-13
1.45926266e-13
1.39798288e-13
1.33984131e-13
1.28507094e-13
1.2338399e-13
1.18621406e-13
1.14209346e-13
1.10133259e-13
1.06380901e-13
1.02936252e-13
9.97805474e-14
9.68926301e-14
9.42511103e-14
9.18377534e-14
8.96381463e-14
8.76359796e-14
8.58158585e-14
8.41644988e-14
8.26720206e-14
8.1333655e-14
8.03173584e-14
8.57998515e-14
2.89492321e-13
5.05897445e-12
5.26964812e-14
9.54519174e-14
1.2776985e-13
1.50991156e-13
1.66963808e-13
1.77378558e-13
1.83594874e-13
1.86610536e-13
1.87158772e-13
1.85801878e-13
1.82989094e-13
1.7907849e-13
1.74360613e-13
1.69086273e-13
1.63464799e-13
1.57660657e-13
1.51805285e-13
1.46008353e-13
1.40351786e-13
1.34892914e-13
1.29675018e-13
1.24728897e-13
1.20070128e-13
1.15705093e-13
1.11633963e-13
1.07854003e-13
1.04357121e-13
1.01130639e-13