/*--------------------------------*- C++ -*----------------------------------*\
  =========                 |
  \\      /  F ield         | OpenFOAM: The Open Source CFD Toolbox
   \\    /   O peration     | Website:  https://openfoam.org
    \\  /    A nd           | Version:  6
     \\/     M anipulation  |
\*---------------------------------------------------------------------------*/
FoamFile
{
    version     2.0;
    format      ascii;
    class       volScalarField;
    location    "25000";
    object      NH;
}
// * * * * * * * * * * * * * * * * * * * * * * * * * * * * * * * * * * * * * //

dimensions      [0 0 0 0 0 0 0];

internalField   nonuniform List<scalar> 
44870
(
1.49610373e-106
2.90150986e-106
4.14769477e-106
1.12705175e-105
1.25179278e-103
1.98877287e-101
3.21093444e-99
5.26383201e-97
8.77163988e-95
1.48765421e-92
2.57083196e-90
4.53213914e-88
8.15905779e-86
1.50140953e-83
2.82629443e-81
5.44589531e-79
1.07462026e-76
2.17218047e-74
4.4982649e-72
9.54274272e-70
2.07346891e-67
4.61256036e-65
1.05007193e-62
2.44464594e-60
5.81630208e-58
1.41277373e-55
3.50006921e-53
8.83255888e-51
2.26724901e-48
5.90961276e-46
1.5608318e-43
4.16667991e-41
1.12038065e-38
3.02156448e-36
8.12040421e-34
2.15597163e-31
5.57059923e-29
1.36887738e-26
3.02132537e-24
5.54386117e-22
8.47453947e-107
2.76309425e-106
1.56665016e-106
5.7143452e-106
5.14140575e-104
7.88062462e-102
1.23625586e-99
1.98390551e-97
3.26580224e-95
5.53074404e-93
9.65930528e-91
1.74372868e-88
3.25881065e-86
6.31349264e-84
1.26841251e-81
2.64316165e-79
5.70825601e-77
1.2765042e-74
2.95085443e-72
7.04107999e-70
1.73052661e-67
4.37407617e-65
1.1344733e-62
3.01559059e-60
8.19676227e-58
2.27690729e-55
6.44816686e-53
1.86206577e-50
5.46767444e-48
1.6342524e-45
4.95381003e-43
1.5256214e-40
4.74892535e-38
1.4975044e-35
4.74588439e-33
1.51368822e-30
4.78827622e-28
1.49693523e-25
4.35387054e-23
1.17554155e-20
3.73971767e-106
2.72730159e-106
3.46139598e-106
4.45476195e-106
7.9997995e-105
1.13364001e-102
1.76655152e-100
2.93947371e-98
5.26257776e-96
1.02034809e-93
2.1398757e-91
4.83125526e-89
1.1620863e-86
2.94941697e-84
7.80476865e-82
2.14031209e-79
6.02450852e-77
1.7362394e-74
5.08975261e-72
1.51750182e-69
4.58028895e-67
1.40199348e-64
4.33097434e-62
1.35576868e-59
4.27401047e-57
1.36617355e-54
4.3901882e-52
1.43234429e-49
4.69055453e-47
1.56286224e-44
5.21824346e-42
1.7766862e-39
6.04974932e-37
2.10516923e-34
7.31253535e-32
2.59844223e-29
9.18722201e-27
3.33489055e-24
1.1559117e-21
4.10017908e-19
3.34545344e-106
2.65475892e-106
4.31462996e-106
5.77142558e-106
9.16723112e-106
1.54041378e-103
4.15007336e-101
1.26506319e-98
4.12198234e-96
1.38883587e-93
4.75165061e-91
1.63523048e-88
5.63001021e-86
1.93505498e-83
6.62871737e-81
2.2631857e-78
7.70063451e-76
2.61284003e-73
8.84504129e-71
2.98725329e-68
1.00831157e-65
3.40232456e-63
1.14798215e-60
3.88049457e-58
1.31208756e-55
4.454174e-53
1.5129432e-50
5.16918556e-48
1.76689282e-45
6.08985628e-43
2.09920364e-40
7.31168394e-38
2.5458458e-35
8.97057898e-33
3.15722964e-30
1.12250834e-27
3.96654568e-25
1.40508941e-22
4.78107405e-20
1.57407377e-17
6.72609216e-106
2.10016804e-106
2.15945222e-106
2.36785875e-106
1.90415191e-105
7.28861431e-103
3.39297944e-100
1.51213808e-97
6.47833139e-95
2.67987881e-92
1.07454624e-89
4.19222993e-87
1.59650631e-84
5.95333084e-82
2.1794209e-79
7.85260969e-77
2.79043057e-74
9.79928608e-72
3.40625928e-69
1.17387779e-66
4.01568679e-64
1.36534228e-61
4.61819615e-59
1.55554225e-56
5.22129274e-54
1.74787076e-51
5.83881953e-49
1.94706542e-46
6.48538074e-44
2.15842157e-41
7.17999368e-39
2.38816802e-36
7.94390408e-34
2.6432127e-31
8.79929225e-29
2.93122398e-26
9.77166099e-24
3.26022884e-21
1.08867124e-18
3.65916878e-16
2.47961499e-20
7.25360804e-20
1.32460118e-19
2.04711035e-19
3.23222709e-19
8.82340037e-19
2.47382324e-18
5.53697345e-18
1.01010805e-17
1.58838171e-17
2.23227545e-17
2.90404592e-17
3.57412957e-17
4.24740458e-17
4.92755974e-17
5.61864003e-17
6.32678466e-17
7.03890166e-17
7.78003498e-17
8.56634647e-17
9.46993182e-17
1.05648573e-16
1.19410989e-16
1.36880366e-16
1.58926996e-16
1.86497456e-16
2.20312976e-16
2.63169296e-16
3.16989148e-16
3.8814508e-16
4.82229087e-16
6.07688791e-16
7.75052975e-16
9.93438629e-16
1.27936368e-15
1.64576283e-15
2.120973e-15
2.73321612e-15
3.53406549e-15
4.58156798e-15
5.95932496e-15
7.76421365e-15
1.01145197e-14
1.31461121e-14
1.70332534e-14
2.19720338e-14
2.82232505e-14
3.61297113e-14
4.61361249e-14
5.88037998e-14
7.48037936e-14
9.49278725e-14
1.200769e-13
1.51319879e-13
1.89929617e-13
2.37529978e-13
2.96181223e-13
3.68534163e-13
4.5785694e-13
5.68049928e-13
7.03578004e-13
8.69373604e-13
1.07092227e-12
1.31423615e-12
1.60645206e-12
1.95568572e-12
2.37219905e-12
2.86795139e-12
3.45805717e-12
4.15991686e-12
4.99472137e-12
5.98707327e-12
7.16454635e-12
8.56008246e-12
1.02040068e-11
1.21337404e-11
1.43744745e-11
1.69523626e-11
1.988299e-11
2.31762509e-11
2.68347417e-11
3.08577471e-11
3.52480509e-11
4.00135523e-11
4.51734983e-11
5.07567209e-11
5.6811591e-11
6.33902172e-11
7.05579831e-11
7.8391049e-11
8.69726e-11
9.64039279e-11
1.0679935e-10
1.18298546e-10
1.31073025e-10
1.4533338e-10
1.61333714e-10
1.79379613e-10
1.99831539e-10
2.23119012e-10
2.49735117e-10
2.80238894e-10
3.15258305e-10
3.55519724e-10
4.01839318e-10
4.5519923e-10
5.16774128e-10
5.87941168e-10
6.70470533e-10
7.66532998e-10
8.78924046e-10
1.01120829e-09
1.16798587e-09
1.35540472e-09
1.58184759e-09
1.85836697e-09
2.19993247e-09
2.62725106e-09
3.16910756e-09
3.86543128e-09
4.77103837e-09
5.95855236e-09
7.5169442e-09
9.53942272e-09
1.20956127e-08
1.51923941e-08
1.87442444e-08
2.25748806e-08
2.64602656e-08
3.018823e-08
3.36016841e-08
3.66138175e-08
3.9214589e-08
4.14521097e-08
4.3402704e-08
4.51696892e-08
4.68438499e-08
4.85052642e-08
5.01878143e-08
5.17124103e-08
5.34267568e-08
5.47536318e-08
5.43571934e-08
5.07745761e-08
4.43851773e-08
3.67067388e-08
2.90774697e-08
2.23574111e-08
1.68577097e-08
1.26769292e-08
9.58687271e-09
7.33224959e-09
5.69283448e-09
4.49534936e-09
3.61172032e-09
2.95094904e-09
2.44827106e-09
2.05832635e-09
1.74960369e-09
1.50024517e-09
1.29503781e-09
1.12335195e-09
9.77683376e-10
8.5267411e-10
7.44441276e-10
6.50119361e-10
5.67555813e-10
4.95086893e-10
4.31387045e-10
3.75370383e-10
3.2612435e-10
2.82865811e-10
2.44911723e-10
2.11661075e-10
1.82582211e-10
1.57202326e-10
1.35094347e-10
1.15878511e-10
9.92154962e-11
8.48016725e-11
7.23652617e-11
6.16628499e-11
5.24765858e-11
4.46121291e-11
3.78965059e-11
3.21755315e-11
2.73120643e-11
2.31855086e-11
1.96910393e-11
1.67368847e-11
1.42404853e-11
1.21350781e-11
1.03579224e-11
8.86128299e-12
7.60064553e-12
6.5361585e-12
5.63518805e-12
4.87367336e-12
4.23128596e-12
3.68690553e-12
3.22383352e-12
2.82786082e-12
2.4907091e-12
2.20294993e-12
1.95574039e-12
1.74258424e-12
1.5575745e-12
1.39841944e-12
1.26022151e-12
1.13891015e-12
1.03173046e-12
9.36814061e-13
8.53072452e-13
7.78512896e-13
7.11755809e-13
6.51558097e-13
5.97332042e-13
5.48364142e-13
5.03763982e-13
4.63572445e-13
4.26744838e-13
3.93133809e-13
3.62494668e-13
3.34435231e-13
3.08704913e-13
2.85105137e-13
2.63458315e-13
2.43568742e-13
2.25238625e-13
2.08319516e-13
1.92702877e-13
1.78297388e-13
1.65022354e-13
1.5280343e-13
1.41567122e-13
1.31238692e-13
1.21738865e-13
1.12973061e-13
1.0490826e-13
9.74771627e-14
9.06163991e-14
8.42720984e-14
7.83965387e-14
7.2947355e-14
6.78867858e-14
6.31809219e-14
5.87990459e-14
5.47134809e-14
5.08994495e-14
4.73352078e-14
4.40023458e-14
4.08861436e-14
3.79757513e-14
3.52638825e-14
3.27450367e-14
3.04047447e-14
2.82709186e-14
2.63139055e-14
2.45255662e-14
2.28948192e-14
2.14084434e-14
2.00521989e-14
1.88117433e-14
1.76735053e-14
1.6625702e-14
1.56597751e-14
1.4773125e-14
1.39751112e-14
1.33012497e-14
1.28466671e-14
6.5943874e-19
1.57688217e-18
2.42550734e-18
3.38788156e-18
5.57578581e-18
2.15614416e-17
6.23748167e-17
1.29172814e-16
2.13258583e-16
3.03663403e-16
3.89399072e-16
4.69090985e-16
5.4478212e-16
6.22722284e-16
7.0515565e-16
7.91651847e-16
8.81158048e-16
9.70586083e-16
1.06558881e-15
1.1729611e-15
1.30819194e-15
1.48397804e-15
1.70962694e-15
1.99350683e-15
2.33394195e-15
2.74148816e-15
3.22162326e-15
3.81162616e-15
4.55364372e-15
5.52193211e-15
6.78049596e-15
8.39933287e-15
1.04302841e-14
1.29168848e-14
1.59140003e-14
1.94914805e-14
2.3804366e-14
2.90537738e-14
3.55498415e-14
4.35868158e-14
5.35049066e-14
6.55501218e-14
7.99772922e-14
9.69840342e-14
1.16907334e-13
1.40186441e-13
1.67559119e-13
2.00039588e-13
2.388282e-13
2.85175251e-13
3.40238074e-13
4.05064038e-13
4.80647566e-13
5.68196349e-13
6.69413546e-13
7.86892261e-13
9.24236138e-13
1.0860536e-12
1.2775645e-12
1.50423889e-12
1.77142627e-12
2.08437938e-12
2.44852546e-12
2.8700119e-12
3.3563794e-12
3.91632356e-12
4.5611329e-12
5.30365839e-12
6.16002932e-12
7.14882218e-12
8.29321763e-12
9.62061113e-12
1.1162001e-11
1.29533806e-11
1.50257869e-11
1.74145421e-11
2.0137965e-11
2.32136155e-11
2.66469805e-11
3.04404684e-11
3.45916433e-11
3.91018843e-11
4.39825975e-11
4.925515e-11
5.49554685e-11
6.11303649e-11
6.78428041e-11
7.51553144e-11
8.31371777e-11
9.18666572e-11
1.01424132e-10
1.11907656e-10
1.23435139e-10
1.3615376e-10
1.50248378e-10
1.65948039e-10
1.83529748e-10
2.03326034e-10
2.25727711e-10
2.51200062e-10
2.80269588e-10
3.13530211e-10
3.51648579e-10
3.95394926e-10
4.45632985e-10
5.03410461e-10
5.69971754e-10
6.46783523e-10
7.35735415e-10
8.39145951e-10
9.59980436e-10
1.10203078e-09
1.27021729e-09
1.47108297e-09
1.71349126e-09
2.00904201e-09
2.37349456e-09
2.82852024e-09
3.40402453e-09
4.14108509e-09
5.09547733e-09
6.34001621e-09
7.96210929e-09
1.00504385e-08
1.26671191e-08
1.58101897e-08
1.93877707e-08
2.32213257e-08
2.70902068e-08
3.07890106e-08
3.41681015e-08
3.71457492e-08
3.97173383e-08
4.19338032e-08
4.38689539e-08
4.56258661e-08
4.72863755e-08
4.8921542e-08
5.05505405e-08
5.20763568e-08
5.37180179e-08
5.48404043e-08
5.40913339e-08
5.02024989e-08
4.3699186e-08
3.60557586e-08
2.85382463e-08
2.19523185e-08
1.65770596e-08
1.24874194e-08
9.46034276e-09
7.24768262e-09
5.63587244e-09
4.45632339e-09
3.58446682e-09
2.93136776e-09
2.4336896e-09
2.04706205e-09
1.74060748e-09
1.4928628e-09
1.28885539e-09
1.11810014e-09
9.73181462e-10
8.48795105e-10
7.41091425e-10
6.47225154e-10
5.65056668e-10
4.92931669e-10
4.29531533e-10
3.73775845e-10
3.24756626e-10
2.81694758e-10
2.43910809e-10
2.10807022e-10
1.8185476e-10
1.5658405e-10
1.34569804e-10
1.15434473e-10
9.88405303e-11
8.4485887e-11
7.21000979e-11
6.14408652e-11
5.2291267e-11
4.44578286e-11
3.77684328e-11
3.20695988e-11
2.72246308e-11
2.31133448e-11
1.96315564e-11
1.66881584e-11
1.42004064e-11
1.21024194e-11
1.03308987e-11
8.83906338e-12
7.58271912e-12
6.52167768e-12
5.62316221e-12
4.86344473e-12
4.22290814e-12
3.68026269e-12
3.2184866e-12
2.82325552e-12
2.48663238e-12
2.19961332e-12
1.95312907e-12
1.74042481e-12
1.55556853e-12
1.39660028e-12
1.25872452e-12
1.13769416e-12
1.03065735e-12
9.35785037e-13
8.52137653e-13
7.77732361e-13
7.1110352e-13
6.50966695e-13
5.96767146e-13
5.47858419e-13
5.03300581e-13
4.63190416e-13
4.2639261e-13
3.92805273e-13
3.62199776e-13
3.34176393e-13
3.0847304e-13
2.84891771e-13
2.63260814e-13
2.43386693e-13
2.2506971e-13
2.08160447e-13
1.92551984e-13
1.78154445e-13
1.64887299e-13
1.52675949e-13
1.41446965e-13
1.31125792e-13
1.21633378e-13
1.12873283e-13
1.04816084e-13
9.73917939e-14
9.05373096e-14
8.41987546e-14
7.83284574e-14
7.28840982e-14
6.78279562e-14
6.31261573e-14
5.87480175e-14
5.46658961e-14
5.08550565e-14
4.72937987e-14
4.39637563e-14
4.08502487e-14
3.7942457e-14
3.52331156e-14
3.27167247e-14
3.03777058e-14
2.82475917e-14
2.6292565e-14
2.45061647e-14
2.28772265e-14
2.13924847e-14
2.0037691e-14
1.87985086e-14
1.76613781e-14
1.6614533e-14
1.56494364e-14
1.47635064e-14
1.39661119e-14
1.32927579e-14
1.28384773e-14
3.38562767e-17
6.7101616e-17
9.03554752e-17
1.21570731e-16
2.34436971e-16
1.31076308e-15
3.51848316e-15
6.33655332e-15
9.07777309e-15
1.13005853e-14
1.2853347e-14
1.40646619e-14
1.52754927e-14
1.66487189e-14
1.81059503e-14
1.94897411e-14
2.06710018e-14
2.16296382e-14
2.2609468e-14
2.39843605e-14
2.60705018e-14
2.89598727e-14
3.2541426e-14
3.66262804e-14
4.10291508e-14
4.57680449e-14
5.10851018e-14
5.76599325e-14
6.62672773e-14
7.76009873e-14
9.1915941e-14
1.09130304e-13
1.28875387e-13
1.50827466e-13
1.74952867e-13
2.01891834e-13
2.33153312e-13
2.70655791e-13
3.16257946e-13
3.70857409e-13
4.34641496e-13
5.06794383e-13
5.86651457e-13
6.73737861e-13
7.69242952e-13
8.75734539e-13
9.97399973e-13
1.13873812e-12
1.30315627e-12
1.49212432e-12
1.7051832e-12
1.9409477e-12
2.19847113e-12
2.47892453e-12
2.78679156e-12
3.1302875e-12
3.52010986e-12
3.96729121e-12
4.48072284e-12
5.06607822e-12
5.72606893e-12
6.46250418e-12
7.27814154e-12
8.17919596e-12
9.17434561e-12
1.02741591e-11
1.14924671e-11
1.28433682e-11
1.43449656e-11
1.60194817e-11
1.78972305e-11
2.00155875e-11
2.24161411e-11
2.51418524e-11
2.8221501e-11
3.16788031e-11
3.55101006e-11
3.97089035e-11
4.42584309e-11
4.91485358e-11
5.43765022e-11
5.99597857e-11
6.59394404e-11
7.23763562e-11
7.93484438e-11
8.69422892e-11
9.52464555e-11
1.04339921e-10
1.14290429e-10
1.25165525e-10
1.37037886e-10
1.50001492e-10
1.64181954e-10
1.79748571e-10
1.96922773e-10
2.15981295e-10
2.37258183e-10
2.61151105e-10
2.88123247e-10
3.1872228e-10
3.53549893e-10
3.93279354e-10
4.38665412e-10
4.90577735e-10
5.49991054e-10
6.1810066e-10
6.96312491e-10
7.86307822e-10
8.90242937e-10
1.01078033e-09
1.1512768e-09
1.31607826e-09
1.5108098e-09
1.7429324e-09
2.02229586e-09
2.36182903e-09
2.77902179e-09
3.2976355e-09
3.94993414e-09
4.77926167e-09
5.84307092e-09
7.21391031e-09
8.97485729e-09
1.12037817e-08
1.39463157e-08
1.71821783e-08
2.08076717e-08
2.46406701e-08
2.84685787e-08
3.21011126e-08
3.54042164e-08
3.83059101e-08
4.08137009e-08
4.29841007e-08
4.48832162e-08
4.66145672e-08
4.82366404e-08
4.97996139e-08
5.12811311e-08
5.28283057e-08
5.42789127e-08
5.48809053e-08
5.3380835e-08
4.888957e-08
4.21930106e-08
3.46534285e-08
2.7388648e-08
2.10929489e-08
1.59841647e-08
1.20852988e-08
9.1908056e-09
7.06677125e-09
5.51361029e-09
4.37237909e-09
3.52574119e-09
2.88904323e-09
2.40207532e-09
2.02257599e-09
1.7210141e-09
1.47676317e-09
1.27536248e-09
1.10663387e-09
9.63350827e-10
8.4032426e-10
7.33775878e-10
6.40904646e-10
5.59598872e-10
4.88224763e-10
4.25478902e-10
3.70292871e-10
3.21768738e-10
2.7913619e-10
2.41723693e-10
2.089406e-10
1.80264802e-10
1.55232656e-10
1.3342317e-10
1.14463766e-10
9.80208085e-11
8.37955343e-11
7.15203702e-11
6.09554943e-11
5.18861057e-11
4.41205802e-11
3.74884899e-11
3.18378787e-11
2.70333228e-11
2.29556926e-11
1.95018048e-11
1.65816299e-11
1.41136255e-11
1.20308211e-11
1.0272235e-11
8.79086905e-12
7.54328146e-12
6.4894673e-12
5.59684534e-12
4.84165384e-12
4.20485922e-12
3.66538832e-12
3.20634863e-12
2.81327442e-12
2.47815609e-12
2.19243474e-12
1.94714393e-12
1.73545373e-12
1.55130083e-12
1.39287034e-12
1.25547469e-12
1.13486985e-12
1.02821754e-12
9.33618883e-13
8.5019591e-13
7.76011613e-13
7.09591574e-13
6.49635639e-13
5.95567021e-13
5.46773334e-13
5.02395147e-13
4.62311062e-13
4.25607505e-13
3.92095066e-13
3.61555353e-13
3.33596057e-13
3.07950276e-13
2.84417408e-13
2.62825387e-13
2.42983176e-13
2.24693465e-13
2.0780724e-13
1.92218615e-13
1.77839207e-13
1.64589401e-13
1.52394871e-13
1.41182343e-13
1.30877386e-13
1.21401217e-13
1.12653955e-13
1.04613423e-13
9.72041572e-14
9.03634792e-14
8.40375541e-14
7.81788291e-14
7.27450857e-14
6.76986875e-14
6.30058335e-14
5.8635915e-14
5.45613717e-14
5.07575551e-14
4.720286e-14
4.38790149e-14
4.0771425e-14
3.78693405e-14
3.51655428e-14
3.26545398e-14
3.03239306e-14
2.81965135e-14
2.62456634e-14
2.44635285e-14
2.28385668e-14
2.13574184e-14
2.00058143e-14
1.87694299e-14
1.76347349e-14
1.65900009e-14
1.56267332e-14
1.47423876e-14
1.39463546e-14
1.32741178e-14
1.28205446e-14
2.16364932e-15
3.34797802e-15
4.11843676e-15
5.48674449e-15
1.27005253e-14
8.95443342e-14
1.97568182e-13
2.85532459e-13
3.31429659e-13
3.38840362e-13
3.23470279e-13
3.11790314e-13
3.12161738e-13
3.18690327e-13
3.22408099e-13
3.18685982e-13
3.07633245e-13
2.937651e-13
2.87015089e-13
2.94763385e-13
3.16606764e-13
3.4634026e-13
3.7731238e-13
4.05249671e-13
4.29784872e-13
4.54077488e-13
4.85624219e-13
5.34959546e-13
6.0833259e-13
7.04827714e-13
8.17473131e-13
9.37870394e-13
1.05940384e-12
1.17997385e-12
1.30349984e-12
1.44147379e-12
1.60994385e-12
1.82087156e-12
2.07625448e-12
2.36728264e-12
2.6807944e-12
3.00341942e-12
3.32912629e-12
3.65965343e-12
4.00945768e-12
4.40047747e-12
4.85562043e-12
5.38720045e-12
5.9915955e-12
6.65227007e-12
7.3480754e-12
8.0626979e-12
8.79163595e-12
9.54652904e-12
1.03547951e-11
1.12533037e-11
1.22759049e-11
1.34416973e-11
1.47501273e-11
1.61857236e-11
1.77284309e-11
1.93647765e-11
2.10938602e-11
2.29282919e-11
2.48845862e-11
2.69781658e-11
2.92243542e-11
3.16358028e-11
3.42348056e-11
3.70569497e-11
4.01575729e-11
4.36047568e-11
4.74649924e-11
5.1787451e-11
5.65788344e-11
6.18194157e-11
6.74508112e-11
7.34192529e-11
7.96799729e-11
8.62223535e-11
9.30776437e-11
1.0032043e-10
1.08066593e-10
1.1646124e-10
1.25654583e-10
1.35786924e-10
1.46965912e-10
1.59259908e-10
1.72706288e-10
1.87335849e-10
2.03197121e-10
2.20382178e-10
2.39041356e-10
2.59397545e-10
2.81750027e-10
3.06469041e-10
3.33994067e-10
3.64838207e-10
3.9958964e-10
4.38927636e-10
4.83573376e-10
5.34328132e-10
5.92087503e-10
6.57880659e-10
7.32872207e-10
8.18481961e-10
9.16397921e-10
1.02866879e-09
1.15788076e-09
1.30726039e-09
1.48085208e-09
1.68389259e-09
1.92316053e-09
2.2074897e-09
2.54833417e-09
2.96072359e-09
3.46477339e-09
4.08728938e-09
4.86375096e-09
5.84011854e-09
7.07512877e-09
8.63901324e-09
1.06059749e-08
1.30354657e-08
1.5948792e-08
1.93011804e-08
2.29768526e-08
2.6790966e-08
3.0544772e-08
3.40709542e-08
3.72573606e-08
4.00424509e-08
4.24535627e-08
4.45537327e-08
4.63903965e-08
4.80718689e-08
4.9608674e-08
5.10170995e-08
5.24767798e-08
5.38917239e-08
5.48648348e-08
5.45885356e-08
5.1998208e-08
4.67875926e-08
3.99355468e-08
3.26088579e-08
2.57401592e-08
1.98698345e-08
1.5145427e-08
1.15112338e-08
8.8034413e-09
6.80480889e-09
5.33558522e-09
4.24996735e-09
3.43969802e-09
2.82667545e-09
2.35523668e-09
1.98613384e-09
1.69175694e-09
1.45266947e-09
1.2551439e-09
1.08944116e-09
9.48606821e-10
8.27618815e-10
7.2280277e-10
6.31424207e-10
5.51412471e-10
4.81164251e-10
4.19399155e-10
3.65066901e-10
3.17284763e-10
2.7529571e-10
2.38440102e-10
2.06137946e-10
1.7787774e-10
1.5320279e-10
1.31700616e-10
1.13005392e-10
9.67892227e-11
8.27582871e-11
7.06492864e-11
6.02261537e-11
5.12773367e-11
4.36139235e-11
3.70678625e-11
3.14895349e-11
2.67457095e-11
2.27189109e-11
1.9307049e-11
1.64213986e-11
1.39826662e-11
1.19232768e-11
1.01844765e-11
8.71876483e-12
7.48367903e-12
6.44052559e-12
5.55731337e-12
4.80943763e-12
4.17795302e-12
3.64261061e-12
3.18763583e-12
2.79834033e-12
2.46583394e-12
2.18175117e-12
1.93784316e-12
1.72771046e-12
1.54497755e-12
1.38750318e-12
1.25061307e-12
1.13044826e-12
1.02443991e-12
9.30427246e-13
8.47373918e-13
7.73405822e-13
7.07222449e-13
6.47582841e-13
5.93786273e-13
5.45192031e-13
5.01003759e-13
4.60957401e-13
4.24403943e-13
3.91027318e-13
3.60582115e-13
3.32703444e-13
3.07141534e-13
2.83689303e-13
2.62161198e-13
2.42366084e-13
2.24115955e-13
2.0726589e-13
1.91709571e-13
1.77358874e-13
1.64135766e-13
1.51967192e-13
1.40780225e-13
1.3050031e-13
1.21048878e-13
1.12320845e-13
1.04306293e-13
9.69198542e-14
9.01000625e-14
8.37932555e-14
7.79520618e-14
7.25344141e-14
6.7502796e-14
6.28235118e-14
5.8466068e-14
5.44030264e-14
5.06098709e-14
4.70651376e-14
4.3750697e-14
4.06520838e-14
3.77586515e-14
3.50632547e-14
3.25605419e-14
3.02417446e-14
2.81188924e-14
2.61746082e-14
2.43989593e-14
2.27800175e-14
2.13043059e-14
1.99575266e-14
1.87253736e-14
1.75943645e-14
1.65528299e-14
1.55923341e-14
1.47103886e-14
1.39164182e-14
1.32458759e-14
1.27934064e-14
1.28808641e-13
1.17694012e-13
1.13837707e-13
1.52802326e-13
4.59066465e-13
3.9124807e-12
6.31207498e-12
6.65671226e-12
5.75932158e-12
4.51935126e-12
3.50949728e-12
3.26179135e-12
3.36924038e-12
3.40782462e-12
3.23779249e-12
2.91753144e-12
2.56032767e-12
2.28728868e-12
2.26581643e-12
2.48897031e-12
2.80093474e-12
3.05848444e-12
3.2065876e-12
3.26165798e-12
3.27866858e-12
3.32763458e-12
3.51135191e-12
3.91673764e-12
4.51620208e-12
5.19987544e-12
5.85742036e-12
6.42591701e-12
6.89557762e-12
7.30346037e-12
7.72929344e-12
8.29376429e-12
9.10024653e-12
1.01513939e-11
1.13517167e-11
1.2569821e-11
1.37053489e-11
1.47133276e-11
1.56171976e-11
1.64918767e-11
1.7463613e-11
1.86631918e-11
2.01596198e-11
2.19134378e-11
2.38019692e-11
2.56847194e-11
2.74617341e-11
2.91045109e-11
3.06599698e-11
3.22405062e-11
3.399635e-11
3.60646038e-11
3.85087103e-11
4.12936549e-11
4.43123193e-11
4.74414401e-11
5.05945142e-11
5.37467588e-11
5.69330932e-11
6.02116364e-11
6.36304957e-11
6.72030018e-11
7.09280122e-11
7.48111897e-11
7.88990184e-11
8.32857621e-11
8.81148072e-11
9.3539503e-11
9.96680227e-11
1.06519584e-10
1.1399777e-10
1.21948781e-10
1.30194501e-10
1.38608555e-10
1.47141596e-10
1.55846976e-10
1.64874388e-10
1.74451147e-10
1.84855105e-10
1.96377251e-10
2.09262527e-10
2.2368725e-10
2.39718688e-10
2.57334983e-10
2.7647024e-10
2.97071371e-10
3.19150875e-10
3.42822315e-10
3.68311382e-10
3.95963238e-10
4.26231049e-10
4.59654736e-10
4.96850397e-10
5.38518059e-10
5.85436352e-10
6.38460807e-10
6.98491619e-10
7.66510737e-10
8.43610242e-10
9.3105121e-10
1.03028977e-09
1.14305974e-09
1.27149724e-09
1.41820463e-09
1.5864354e-09
1.78025513e-09
2.00472017e-09
2.26643089e-09
2.57370623e-09
2.93727397e-09
3.37097097e-09
3.8925819e-09
4.52564126e-09
5.30059652e-09
6.25628403e-09
7.44024243e-09
8.91036968e-09
1.0730212e-08
1.29583754e-08
1.56269958e-08
1.87280684e-08
2.21908173e-08
2.58943123e-08
2.96521954e-08
3.32869719e-08
3.66613076e-08
3.96891939e-08
4.23135284e-08
4.45938946e-08
4.65972677e-08
4.8329289e-08
4.9917757e-08
5.12759828e-08
5.26707065e-08
5.39967952e-08
5.49846279e-08
5.51026771e-08
5.35496407e-08
4.97019761e-08
4.38675436e-08
3.70053882e-08
3.00453031e-08
2.37134333e-08
1.83770668e-08
1.41024855e-08
1.08035285e-08
8.32183301e-09
6.47580398e-09
5.11126558e-09
4.09507711e-09
3.33010133e-09
2.74658891e-09
2.2946369e-09
1.93869913e-09
1.65350831e-09
1.42108149e-09
1.22859149e-09
1.0668445e-09
9.29222505e-10
8.109135e-10
7.08375194e-10
6.18958949e-10
5.40648604e-10
4.71879984e-10
4.1140331e-10
3.58192422e-10
3.11384805e-10
2.70241034e-10
2.34117189e-10
2.02447231e-10
1.74733756e-10
1.50528549e-10
1.29430952e-10
1.11083644e-10
9.51662469e-11
8.13913771e-11
6.95012973e-11
5.92649073e-11
5.04750186e-11
4.29462574e-11
3.65135233e-11
3.10302607e-11
2.6366418e-11
2.24068488e-11
1.90505464e-11
1.62101146e-11
1.38090053e-11
1.17813415e-11
1.00690716e-11
8.62406847e-12
7.4048869e-12
6.37545757e-12
5.50508848e-12
4.76740005e-12
4.14274155e-12
3.61232301e-12
3.16252175e-12
2.7786563e-12
2.44992699e-12
2.16780882e-12
1.92536261e-12
1.71723656e-12
1.53668888e-12
1.38061201e-12
1.24424065e-12
1.12449135e-12
1.01935541e-12
9.26260185e-13
8.4372865e-13
7.69958562e-13
7.04017727e-13
6.44822205e-13
5.91446348e-13
5.43103908e-13
4.99058404e-13
4.59124884e-13
4.22787496e-13
3.89608578e-13
3.59283558e-13
3.31496772e-13
3.06042206e-13
2.82702509e-13
2.61263424e-13
2.41530107e-13
2.23331592e-13
2.06531391e-13
1.91020957e-13
1.7671072e-13
1.63524768e-13
1.51392326e-13
1.40240916e-13
1.29995501e-13
1.20577638e-13
1.11874335e-13
1.03896662e-13
9.65406998e-14
8.97487116e-14
8.34673911e-14
7.76495852e-14
7.22534229e-14
6.72415398e-14
6.25803765e-14
5.82395947e-14
5.41919199e-14
5.04130116e-14
4.6881592e-14
4.35797194e-14
4.0493099e-14
3.76112208e-14
3.4927035e-14
3.24353426e-14
3.01292829e-14
2.80151634e-14
2.60799205e-14
2.431295e-14
2.27020229e-14
2.12335434e-14
1.989318e-14
1.8666653e-14
1.7540547e-14
1.65032726e-14
1.55464686e-14
1.46677189e-14
1.38764948e-14
1.32082114e-14
1.27572247e-14
4.92025662e-12
2.05071023e-12
1.95057913e-12
3.25452337e-12
1.20472862e-11
1.10102818e-10
1.11717062e-10
7.69328602e-11
4.59080359e-11
2.69650877e-11
1.90615303e-11
2.44670034e-11
2.7944771e-11
2.62487316e-11
2.18028748e-11
1.71514858e-11
1.36133049e-11
1.18955137e-11
1.32181105e-11
1.58701965e-11
1.76816313e-11
1.80228642e-11
1.73335574e-11
1.62929562e-11
1.54427136e-11
1.52164964e-11
1.62090304e-11
1.86317913e-11
2.15942767e-11
2.41429417e-11
2.58553584e-11
2.67768481e-11
2.71892903e-11
2.74815039e-11
2.81438983e-11
2.97514083e-11
3.25233719e-11
3.597911e-11
3.93660709e-11
4.21350472e-11
4.41139635e-11
4.54293379e-11
4.64115848e-11
4.74933884e-11
4.91720846e-11
5.18121804e-11
5.53550416e-11
5.93220264e-11
6.31233258e-11
6.6348383e-11
6.8879687e-11
7.08669144e-11
7.26452091e-11
7.46560069e-11
7.73347174e-11
8.09373166e-11
8.53954699e-11
9.03664751e-11
9.54267503e-11
1.00262155e-10
1.047658e-10
1.09020179e-10
1.13221228e-10
1.17536872e-10
1.22031256e-10
1.26662766e-10
1.31380121e-10
1.36194329e-10
1.41241522e-10
1.46765881e-10
1.53087648e-10
1.60479615e-10
1.6904191e-10
1.78640037e-10
1.88929646e-10
1.99522542e-10
2.10096582e-10
2.20492813e-10
2.30745789e-10
2.41077589e-10
2.51850043e-10
2.63515029e-10
2.76551203e-10
2.91389626e-10
3.0831758e-10
3.27456513e-10
3.487296e-10
3.7193713e-10
3.96858382e-10
4.23350495e-10
4.51422484e-10
4.81261669e-10
5.13227167e-10
5.47833764e-10
5.85723981e-10
6.27631369e-10
6.74350696e-10
7.26770232e-10
7.85833432e-10
8.52547567e-10
9.27969783e-10
1.01323521e-09
1.1096034e-09
1.21855066e-09
1.34180582e-09
1.4814093e-09
1.63992137e-09
1.82047368e-09
2.02697084e-09
2.26426861e-09
2.5383414e-09
2.85689098e-09
3.2296547e-09
3.66905077e-09
4.19087113e-09
4.81494948e-09
5.56739304e-09
6.4808961e-09
7.59571436e-09
8.95817383e-09
1.06227867e-08
1.26441134e-08
1.50651729e-08
1.78942071e-08
2.11049509e-08
2.46121182e-08
2.83022006e-08
3.19849039e-08
3.55033751e-08
3.87438858e-08
4.16384478e-08
4.41210848e-08
4.62897322e-08
4.82065975e-08
4.98184368e-08
5.12930529e-08
5.26240562e-08
5.39335114e-08
5.499439e-08
5.54414303e-08
5.46890384e-08
5.21140838e-08
4.75236294e-08
4.14496769e-08
3.47231131e-08
2.81224345e-08
2.22212048e-08
1.72834541e-08
1.33317513e-08
1.02727387e-08
7.95737227e-09
6.22468642e-09
4.93984589e-09
3.97587536e-09
3.24496619e-09
2.68376093e-09
2.24666201e-09
1.90087795e-09
1.62285658e-09
1.39568501e-09
1.20720289e-09
1.04862618e-09
9.13588901e-10
7.97439755e-10
6.96738901e-10
6.08905119e-10
5.31966685e-10
4.64390602e-10
4.04951965e-10
3.52644313e-10
3.06621648e-10
2.66158878e-10
2.30624838e-10
1.99464594e-10
1.72192022e-10
1.48366269e-10
1.27595542e-10
1.09529434e-10
9.38535911e-11
8.02858121e-11
6.85728227e-11
5.8487444e-11
4.98259799e-11
4.24060648e-11
3.60651222e-11
3.06588935e-11
2.60595866e-11
2.21540634e-11
1.88427397e-11
1.60393214e-11
1.36687108e-11
1.16662878e-11
9.97505259e-12
8.54711324e-12
7.34156042e-12
6.32319383e-12
5.46240703e-12
4.73257697e-12
4.11401539e-12
3.58833818e-12
3.14253359e-12
2.76235317e-12
2.43643871e-12
2.15641847e-12
1.91560757e-12
1.70891947e-12
1.52973875e-12
1.37470157e-12
1.23905891e-12
1.11986519e-12
1.01530007e-12
9.22751392e-13
8.40633157e-13
7.67178988e-13
7.01509281e-13
6.42593384e-13
5.89470533e-13
5.4133193e-13
4.97453818e-13
4.57654713e-13
4.21462133e-13
3.88416401e-13
3.58194739e-13
3.3049971e-13
3.05133231e-13
2.81874745e-13
2.60503719e-13
2.40824912e-13
2.22673115e-13
2.05915089e-13
1.90442954e-13
1.76168009e-13
1.6301544e-13
1.50915056e-13
1.39794472e-13
1.29578556e-13
1.20189103e-13
1.11504587e-13
1.03560417e-13
9.62292719e-14
8.94600713e-14
8.31996818e-14
7.7401093e-14
7.20225882e-14
6.70269331e-14
6.23806805e-14
5.80536168e-14
5.40185991e-14
5.02514308e-14
4.67309868e-14
4.34394768e-14
4.03627428e-14
3.7490383e-14
3.48154217e-14
3.23327661e-14
3.0036199e-14
2.79299714e-14
2.60022899e-14
2.42424445e-14
2.26380653e-14
2.11754861e-14
1.98403589e-14
1.8618427e-14
1.74963263e-14
1.64625327e-14
1.55087501e-14
1.46326214e-14
1.38436514e-14
1.31772234e-14
1.27274564e-14
6.61805715e-11
7.60841839e-11
6.98091505e-11
6.05035662e-11
5.16648843e-11
4.40253474e-11
3.76029181e-11
3.22589541e-11
2.7821146e-11
2.41528919e-11
2.11293291e-11
1.86425866e-11
1.65968379e-11
1.49049612e-11
1.34990409e-11
1.23284004e-11
1.13505842e-11
1.05271679e-11
9.82985631e-12
9.23788144e-12
8.73302166e-12
8.29933076e-12
7.92523165e-12
7.6019009e-12
7.32127347e-12
7.07636537e-12
6.86200828e-12
6.67386547e-12
6.50846211e-12
6.36282401e-12
6.23432076e-12
6.12068336e-12
6.02045844e-12
5.93240653e-12
5.85571894e-12
5.79038471e-12
5.73753775e-12
5.71075845e-12
6.08146768e-12
2.17258362e-11
3.23001723e-11
4.8569157e-11
5.36611884e-11
5.35553189e-11
5.10979837e-11
4.76398372e-11
4.37188625e-11
3.96389188e-11
3.56001388e-11
3.17939667e-11
2.83343808e-11
2.52556047e-11
2.25557405e-11
2.0214307e-11
1.81968922e-11
1.64655638e-11
1.49841553e-11
1.3715729e-11
1.26273103e-11
1.16925102e-11
1.0888969e-11
1.01955729e-11
9.59505607e-12
9.07414464e-12
8.62153623e-12
8.2266388e-12
7.88111578e-12
7.57805692e-12
7.31170551e-12
7.07735021e-12
6.87090836e-12
6.68854646e-12
6.5276046e-12
6.38594904e-12
6.26194609e-12
6.154816e-12
6.0653687e-12
5.99605228e-12
6.00551978e-12
7.73512651e-12
1.57824346e-11
2.82095634e-11
3.55784034e-11
3.93320081e-11
4.07362975e-11
4.06894094e-11
3.97241687e-11
3.81268522e-11
3.60927888e-11
3.38013804e-11
3.13976248e-11
2.89834808e-11
2.66350665e-11
2.44108827e-11
2.23447179e-11
2.04510231e-11
1.87341557e-11
1.71920934e-11
1.58151457e-11
1.45902815e-11
1.35052121e-11
1.25469479e-11
1.170125e-11
1.09551364e-11
1.02977493e-11
9.71874425e-12
9.20864354e-12
8.75868149e-12
8.36115049e-12
8.00968544e-12
7.69915012e-12
7.42458226e-12
7.18168142e-12
6.96685336e-12
6.77723999e-12
6.61036283e-12
6.4648687e-12
6.33876058e-12
6.23657406e-12
6.2991412e-12
1.20534505e-11
2.14886994e-11
2.81908339e-11
3.24700459e-11
3.48567742e-11
3.58633284e-11
3.59001941e-11
3.52558708e-11
3.41319345e-11
3.26765541e-11
3.10045753e-11
2.92046477e-11
2.73463258e-11
2.54873217e-11
2.36724344e-11
2.19330066e-11
2.02907141e-11
1.87603892e-11
1.7349208e-11
1.60583638e-11
1.48860355e-11
1.38278601e-11
1.28769808e-11
1.20254932e-11
1.12652123e-11
1.05882515e-11
9.98662495e-12