/*--------------------------------*- C++ -*----------------------------------*\
  =========                 |
  \\      /  F ield         | OpenFOAM: The Open Source CFD Toolbox
   \\    /   O peration     | Website:  https://openfoam.org
    \\  /    A nd           | Version:  6
     \\/     M anipulation  |
\*---------------------------------------------------------------------------*/
FoamFile
{
    version     2.0;
    format      ascii;
    class       volScalarField;
    location    "25000";
    object      NH2;
}
// * * * * * * * * * * * * * * * * * * * * * * * * * * * * * * * * * * * * * //

dimensions      [0 0 0 0 0 0 0];

internalField   nonuniform List<scalar> 
44870
(
8.60382591e-106
1.06272869e-103
1.30618622e-101
1.62352228e-99
2.04241209e-97
2.60211373e-95
3.35968887e-93
4.39901128e-91
5.84547449e-89
7.888423e-87
1.08182985e-84
1.50858743e-82
2.14005909e-80
3.0894546e-78
4.53961261e-76
6.7903058e-74
1.03384542e-71
1.60205776e-69
2.5259176e-67
4.05115635e-65
6.60614066e-63
1.09492562e-60
1.84351453e-58
3.15189713e-56
5.46881231e-54
9.62589791e-52
1.71746311e-49
3.10495442e-47
5.68182773e-45
1.05188091e-42
1.96682862e-40
3.71098508e-38
7.04431296e-36
1.34240507e-33
2.5522997e-31
4.81198755e-29
8.86178436e-27
1.56277827e-24
2.48553489e-22
3.34764392e-20
6.21241012e-106
7.62674466e-104
9.3276775e-102
1.15674294e-99
1.45773621e-97
1.87038752e-95
2.44838454e-93
3.27563061e-91
4.48610814e-89
6.29650656e-87
9.06443752e-85
1.33877418e-82
2.02836101e-80
3.15089322e-78
5.01343277e-76
8.16314958e-74
1.35809736e-71
2.30615844e-69
3.99019442e-67
7.02838807e-65
1.25819832e-62
2.28794976e-60
4.2191865e-58
7.89052389e-56
1.49387624e-53
2.86521534e-51
5.55570865e-49
1.09068899e-46
2.16234655e-44
4.33983145e-42
8.78677521e-40
1.80104858e-37
3.71909191e-35
7.77490623e-33
1.63300664e-30
3.4640068e-28
7.31632382e-26
1.54242915e-23
3.04048274e-21
5.70462179e-19
2.66771796e-106
3.19092621e-104
3.84182777e-102
4.7794657e-100
6.19438592e-98
8.4104492e-96
1.20085873e-93
1.80486713e-91
2.84986959e-89
4.71097985e-87
8.10995746e-85
1.44559332e-82
2.65278284e-80
4.98619123e-78
9.5529754e-76
1.86079781e-73
3.66992519e-71
7.32091397e-69
1.47282611e-66
2.98799222e-64
6.10083189e-62
1.25459184e-59
2.59294357e-57
5.39650134e-55
1.12776375e-52
2.37460209e-50
5.01727187e-48
1.06909081e-45
2.2843578e-43
4.93017665e-41
1.0660477e-38
2.33272902e-36
5.10698996e-34
1.13458192e-31
2.51975644e-29
5.6951617e-27
1.28512525e-24
2.97499112e-22
6.60976834e-20
1.50906184e-17
5.54534792e-107
6.62937994e-105
8.98365487e-103
1.41061161e-100
2.52672542e-98
5.01215844e-96
1.06663493e-93
2.3722359e-91
5.41023626e-89
1.24959684e-86
2.89963243e-84
6.72688603e-82
1.55528861e-79
3.57914919e-77
8.18887349e-75
1.86307775e-72
4.21404242e-70
9.48423411e-68
2.12371081e-65
4.73557311e-63
1.05221723e-60
2.33150584e-58
5.15310409e-56
1.13745775e-53
2.50681263e-51
5.52535796e-49
1.21709583e-46
2.68452805e-44
5.92091951e-42
1.30973833e-39
2.89785312e-37
6.4401554e-35
1.43149791e-32
3.20090187e-30
7.15792477e-28
1.60938225e-25
3.60875622e-23
8.10312469e-21
1.76061411e-18
3.72078504e-16
7.13484994e-108
2.20218703e-105
7.40849591e-103
2.47970148e-100
8.00698319e-98
2.47956633e-95
7.3728845e-93
2.11149244e-90
5.84437193e-88
1.56879507e-85
4.09705786e-83
1.04411337e-80
2.60359853e-78
6.36822811e-76
1.53126902e-73
3.62692527e-71
8.47735286e-69
1.95844157e-66
4.47824995e-64
1.01486191e-61
2.28185802e-59
5.09555258e-57
1.13107968e-54
2.49768394e-52
5.49059191e-50
1.20234142e-47
2.62417946e-45
5.71019404e-43
1.23955622e-40
2.68485602e-38
5.80521347e-36
1.25322615e-33
2.70214577e-31
5.81951901e-29
1.25228678e-26
2.69253474e-24
5.78590905e-22
1.24255768e-19
2.66719901e-17
5.75337046e-15
1.06773368e-18
4.39521121e-18
1.13083085e-17
2.41350383e-17
4.80857288e-17
1.19117463e-16
3.56127298e-16
1.02548509e-15
2.59802808e-15
5.81672507e-15
1.17139448e-14
2.17150544e-14
3.75899834e-14
6.16643069e-14
9.67335704e-14
1.46206396e-13
2.14266872e-13
3.05592415e-13
4.26230424e-13
5.82420339e-13
7.82192272e-13
1.03413509e-12
1.34845555e-12
1.73697772e-12
2.21312442e-12
2.79293976e-12
3.49208889e-12
4.33431496e-12
5.33770811e-12
6.53461299e-12
7.95086745e-12
9.62153256e-12
1.15858392e-11
1.387977e-11
1.65568073e-11
1.96577802e-11
2.32482746e-11
2.73777992e-11
3.21211692e-11
3.75431792e-11
4.37305534e-11
5.07709538e-11
5.87634207e-11
6.78106035e-11
7.80192534e-11
8.94900304e-11
1.02322999e-10
1.16618529e-10
1.32479128e-10
1.50013181e-10
1.69331821e-10
1.90552725e-10
2.13789204e-10
2.39152858e-10
2.6673556e-10
2.96610353e-10
3.28813474e-10
3.6334785e-10
4.00176926e-10
4.39232434e-10
4.80419362e-10
5.23618013e-10
5.6869605e-10
6.15498838e-10
6.63875096e-10
7.13647271e-10
7.64644224e-10
8.16648563e-10
8.69417145e-10
9.22609146e-10
9.75799551e-10
1.02844406e-09
1.079884e-09
1.12942171e-09
1.1762569e-09
1.21968645e-09
1.25898343e-09
1.29350718e-09
1.32268376e-09
1.34603895e-09
1.3631925e-09
1.37389868e-09
1.37811338e-09
1.37603137e-09
1.36815739e-09
1.35531363e-09
1.33870403e-09
1.31978315e-09
1.30025242e-09
1.28196163e-09
1.266788e-09
1.25661449e-09
1.25322105e-09
1.25832027e-09
1.27358538e-09
1.3007142e-09
1.34149869e-09
1.39793762e-09
1.47233591e-09
1.56748104e-09
1.68672273e-09
1.83406345e-09
2.01433452e-09
2.23352623e-09
2.49892625e-09
2.81979871e-09
3.20777691e-09
3.67723475e-09
4.24699357e-09
4.94103044e-09
5.79093809e-09
6.83780956e-09
8.13525327e-09
9.75458258e-09
1.17910318e-08
1.43725733e-08
1.76712125e-08
2.19184579e-08
2.74259008e-08
3.46093072e-08
4.40086916e-08
5.62917461e-08
7.22072532e-08
9.24411793e-08
1.17352851e-07
1.46682429e-07
1.79399446e-07
2.13819506e-07
2.4798674e-07
2.80107458e-07
3.08823779e-07
3.33279755e-07
3.53146134e-07
3.68454212e-07
3.79345416e-07
3.86043919e-07
3.88531971e-07
3.86545664e-07
3.79443606e-07
3.65355404e-07
3.46102869e-07
3.18229891e-07
2.78320248e-07
2.27593815e-07
1.75616654e-07
1.30786e-07
9.54150262e-08
6.87963592e-08
4.94385779e-08
3.55161015e-08
2.5554408e-08
1.8442273e-08
1.33773464e-08
9.75438438e-09
7.1474473e-09
5.26243953e-09
3.89291386e-09
2.89323089e-09
2.16019425e-09
1.62032596e-09
1.22102603e-09
9.24476752e-10
7.03338281e-10
5.37755283e-10
4.13244387e-10
3.19201569e-10
2.47857612e-10
1.93493933e-10
1.5188263e-10
1.19888012e-10
9.51763712e-11
7.60054576e-11
6.10701714e-11
4.93897452e-11
4.02211334e-11
3.29995543e-11
2.7297996e-11
2.27888086e-11
1.9218963e-11
1.63923407e-11
1.41560371e-11
1.2390056e-11
1.09996202e-11
9.90944743e-12
9.05937937e-12
8.40097986e-12
7.89503184e-12
7.50976724e-12
7.21944854e-12
7.00312489e-12
6.84351921e-12
6.72671836e-12
6.64143611e-12
6.57875459e-12
6.53130512e-12
6.49309214e-12
6.45954576e-12
6.4271577e-12
6.39358103e-12
6.35689294e-12
6.31547304e-12
6.26834907e-12
6.21524649e-12
6.15646231e-12
6.0920225e-12
6.02168529e-12
5.94538983e-12
5.86438735e-12
5.77952334e-12
5.69079548e-12
5.59824795e-12
5.50238555e-12
5.40461929e-12
5.3052862e-12
5.20455236e-12
5.10217333e-12
4.99889475e-12
4.89548838e-12
4.79136092e-12
4.68667531e-12
4.58109698e-12
4.47506827e-12
4.36908819e-12
4.26313963e-12
4.1574491e-12
4.05231275e-12
3.94809958e-12
3.84496921e-12
3.74279541e-12
3.64145402e-12
3.5409389e-12
3.44134122e-12
3.34285424e-12
3.24578002e-12
3.15049419e-12
3.05739437e-12
2.96683091e-12
2.87891402e-12
2.79391341e-12
2.71207555e-12
2.63343649e-12
2.55799476e-12
2.48568012e-12
2.41637144e-12
2.34990676e-12
2.28609241e-12
2.2247155e-12
2.16556273e-12
2.1084442e-12
2.05322304e-12
1.99985011e-12
1.94840059e-12
1.89910277e-12
1.8523432e-12
1.80861973e-12
1.76832744e-12
1.73187953e-12
1.69941095e-12
1.67081383e-12
1.64575866e-12
1.62375067e-12
1.60421258e-12
1.58656163e-12
1.57027047e-12
1.55491486e-12
1.54021638e-12
1.52610064e-12
1.51281388e-12
1.50118084e-12
1.49316979e-12
2.20330838e-17
7.76281999e-17
1.73439221e-16
3.35272808e-16
6.40826683e-16
1.90919158e-15
6.43843414e-15
1.84799662e-14
4.43001851e-14
9.23539103e-14
1.72731774e-13
2.97943591e-13
4.81879689e-13
7.41704341e-13
1.09629087e-12
1.56697844e-12
2.17802822e-12
2.95376351e-12
3.92343658e-12
5.11267509e-12
6.55259717e-12
8.27272775e-12
1.03033458e-11
1.2680376e-11
1.54298898e-11
1.8593101e-11
2.21933711e-11
2.62709034e-11
3.08498502e-11
3.59678348e-11
4.16455596e-11
4.79125229e-11
5.47871542e-11
6.22903798e-11
7.04418304e-11
7.92567329e-11
8.87596099e-11
9.89645934e-11
1.09906397e-10
1.21605518e-10
1.34107795e-10
1.47441877e-10
1.61654835e-10
1.76780691e-10
1.92857693e-10
2.09921141e-10
2.28010398e-10
2.47172591e-10
2.67463948e-10
2.8895072e-10
3.11706113e-10
3.35808778e-10
3.61334826e-10
3.88355206e-10
4.16928419e-10
4.47101568e-10
4.7890656e-10
5.1236522e-10
5.47486926e-10
5.84270619e-10
6.22698438e-10
6.62733897e-10
7.04315806e-10
7.47359287e-10
7.91758145e-10
8.37369858e-10
8.84036998e-10
9.31546819e-10
9.79638477e-10
1.02795804e-09
1.07607175e-09
1.1234525e-09
1.16950134e-09
1.21360821e-09
1.25511225e-09
1.29343702e-09
1.32799543e-09
1.35825648e-09
1.38372373e-09
1.40397723e-09
1.41866562e-09
1.42757982e-09
1.430722e-09
1.4283445e-09
1.42101838e-09
1.40963585e-09
1.39544659e-09
1.37992142e-09
1.36473242e-09
1.35168149e-09
1.34255941e-09
1.33915361e-09
1.3431929e-09
1.35636883e-09
1.38038358e-09
1.41701461e-09
1.46818554e-09
1.53608042e-09
1.62324297e-09
1.73276722e-09
1.86833199e-09
2.03431691e-09
2.23599889e-09
2.47989499e-09
2.77390333e-09
3.12806194e-09
3.55484475e-09
4.0696473e-09
4.69259354e-09
5.44927429e-09
6.37323018e-09
7.50795681e-09
8.91013702e-09
1.06546722e-08
1.28412387e-08
1.56033446e-08
1.91192846e-08
2.36273952e-08
2.94461687e-08
3.69968482e-08
4.6819622e-08
5.95720119e-08
7.59753261e-08
9.66647988e-08
1.21930191e-07
1.51443889e-07
1.84138957e-07
2.18332401e-07
2.52108292e-07
2.83730537e-07
3.11896312e-07
3.35781779e-07
3.55092441e-07
3.69872638e-07
3.80234025e-07
3.86390393e-07
3.88256203e-07
3.85517097e-07
3.77507062e-07
3.62980127e-07
3.42945419e-07
3.140194e-07
2.73177359e-07
2.22494754e-07
1.71495609e-07
1.27818764e-07
9.33819007e-08
6.74425718e-08
4.85475042e-08
3.4934071e-08
2.51712961e-08
1.81887352e-08
1.32113052e-08
9.64472142e-09
7.07425075e-09
5.21301397e-09
3.85912691e-09
2.86986007e-09
2.14384858e-09
1.60877835e-09
1.21279369e-09
9.1855826e-10
6.99050561e-10
5.34627212e-10
4.10948456e-10
3.17506789e-10
2.46599185e-10
1.92554337e-10
1.5117755e-10
1.19356615e-10
9.47744756e-11
7.57007689e-11
6.08389456e-11
4.9214496e-11
4.00886264e-11
3.2899732e-11
2.72235597e-11
2.27340962e-11
1.91795875e-11
1.63648935e-11
1.41378482e-11
1.23790101e-11
1.09940257e-11
9.90795255e-12
9.06090811e-12
8.4046653e-12
7.90016245e-12
7.51577246e-12
7.22589548e-12
7.0096856e-12
6.84991686e-12
6.73274935e-12
6.64695987e-12
6.58369936e-12
6.53561263e-12
6.49672776e-12
6.46250923e-12
6.42947938e-12
6.39530863e-12
6.35806452e-12
6.31612841e-12
6.26850824e-12
6.21495388e-12
6.15581135e-12
6.09108053e-12
6.02045555e-12
5.9438507e-12
5.86260728e-12
5.77762433e-12
5.68880009e-12
5.59610685e-12
5.50008086e-12
5.40223024e-12
5.30291877e-12
5.20220124e-12
5.09977681e-12
4.9964371e-12
4.89305551e-12
4.78896016e-12
4.68435521e-12
4.57880609e-12
4.47281783e-12
4.36692418e-12
4.26107992e-12
4.15547386e-12
4.05040639e-12
3.94626214e-12
3.84320277e-12
3.74109006e-12
3.63979668e-12
3.5393273e-12
3.43978285e-12
3.34135885e-12
3.24435654e-12
3.14915174e-12
3.05614166e-12
2.96567542e-12
2.87785111e-12
2.79295411e-12
2.7112184e-12
2.63267708e-12
2.55732614e-12
2.48509511e-12
2.41586327e-12
2.34946938e-12
2.28572049e-12
2.22440451e-12
2.16530904e-12
2.10824517e-12
2.053077e-12
1.99975631e-12
1.94835888e-12
1.89911317e-12
1.85240503e-12
1.80873016e-12
1.76847898e-12
1.7320772e-12
1.69964126e-12
1.67106852e-12
1.64602985e-12
1.62403154e-12
1.60449778e-12
1.58684736e-12
1.57055428e-12
1.55519546e-12
1.54049334e-12
1.52637405e-12
1.51308415e-12
1.50144845e-12
1.49343546e-12
8.28872604e-16
2.52966291e-15
5.0322626e-15
8.97925167e-15
1.70664791e-14
6.9572319e-14
2.47471383e-13
6.55213112e-13
1.40038867e-12
2.58343172e-12
4.28551239e-12
6.58139364e-12
9.5361654e-12
1.32181524e-11
1.76820509e-11
2.29727205e-11
2.91132837e-11
3.60996646e-11
4.39126005e-11
5.25120178e-11
6.18601184e-11
7.19139188e-11
8.26322706e-11
9.39739261e-11
1.05887473e-10
1.18331108e-10
1.31232662e-10
1.44538652e-10
1.58191884e-10
1.72152554e-10
1.8639131e-10
2.00901196e-10
2.15686588e-10
2.30769312e-10
2.46168892e-10
2.61914815e-10
2.78037271e-10
2.94580324e-10
3.11605113e-10
3.2917586e-10
3.47371765e-10
3.66251477e-10
3.85875187e-10
4.06264839e-10
4.27429412e-10
4.49360619e-10
4.72056139e-10
4.95532367e-10
5.19826516e-10
5.44989373e-10
5.710667e-10
5.980893e-10
6.26057389e-10
6.54942044e-10
6.84695677e-10
7.15275253e-10
7.46663688e-10
7.78883543e-10
8.1199008e-10
8.4605066e-10
8.81118135e-10
9.17214978e-10
9.54321892e-10
9.92396324e-10
1.03135172e-09
1.07106988e-09
1.11140381e-09
1.15212969e-09
1.19295499e-09
1.23350412e-09
1.27335074e-09
1.31204311e-09
1.34914776e-09
1.38428747e-09
1.41709368e-09
1.44725316e-09
1.47442161e-09
1.49823523e-09
1.51830366e-09
1.53427408e-09
1.54585438e-09
1.55292003e-09
1.55559438e-09
1.55429321e-09
1.54976666e-09
1.54308626e-09
1.53560787e-09
1.52885889e-09
1.5244527e-09
1.52405535e-09
1.52931224e-09
1.54186457e-09
1.5633537e-09
1.59547567e-09
1.64004649e-09
1.69906465e-09
1.77478612e-09
1.86984269e-09
1.98734569e-09
2.1311e-09
2.30553334e-09
2.51589553e-09
2.76848804e-09
3.07103238e-09
3.43284523e-09
3.8657098e-09
4.38400373e-09
5.00548571e-09
5.7531703e-09
6.65632935e-09
7.75294232e-09
9.09207989e-09
1.07370052e-08
1.27705608e-08
1.53022259e-08
1.84776065e-08
2.24882285e-08
2.75863308e-08
3.41037941e-08
4.24710828e-08
5.3224065e-08
6.69920483e-08
8.44303041e-08
1.06059794e-07
1.32022119e-07
1.618535e-07
1.94424163e-07
2.2806289e-07
2.60942759e-07
2.91452671e-07
3.18403302e-07
3.41029734e-07
3.59116406e-07
3.7273213e-07
3.81907272e-07
3.86844068e-07
3.87288577e-07
3.82822529e-07
3.72709651e-07
3.57445879e-07
3.35644784e-07
3.04374242e-07
2.6180916e-07
2.11575943e-07
1.62820603e-07
1.21581705e-07
8.91027229e-08
6.4586454e-08
4.66545036e-08
3.36930044e-08
2.43509817e-08
1.76441791e-08
1.28547954e-08
9.40899028e-09
6.91669218e-09
5.10641086e-09
3.78612057e-09
2.81927954e-09
2.10842499e-09
1.58372429e-09
1.1949161e-09
9.05695922e-10
6.89726614e-10
5.27821549e-10
4.05950647e-10
3.13816165e-10
2.43857992e-10
1.90507125e-10
1.49640979e-10
1.18198339e-10
9.38983545e-11
7.50364981e-11
6.03348183e-11
4.88324481e-11
3.9799791e-11
3.26821333e-11
2.70613713e-11
2.26149378e-11
1.90938872e-11
1.63052098e-11
1.40983451e-11
1.23550716e-11
1.09819736e-11
9.90484099e-12
9.06436912e-12
8.41279175e-12
7.91142268e-12
7.52895139e-12
7.24003596e-12
7.02403418e-12
6.86388494e-12
6.74590609e-12
6.65903446e-12
6.5944927e-12
6.54498714e-12
6.50461909e-12
6.4689518e-12
6.43454298e-12
6.39905845e-12
6.36056835e-12
6.31748748e-12
6.2688368e-12
6.21434674e-12
6.1543728e-12
6.08891605e-12
6.01766073e-12
5.94050768e-12
5.85880562e-12
5.77344942e-12
5.68429047e-12
5.59132965e-12
5.49510181e-12
5.39709463e-12
5.29769319e-12
5.19691161e-12
5.09445972e-12
4.99110772e-12
4.88773811e-12
4.78368877e-12
4.67916279e-12
4.5737455e-12
4.46790787e-12
4.3621772e-12
4.25651065e-12
4.15108359e-12
4.04619797e-12
3.94222235e-12
3.83930909e-12
3.73732317e-12
3.63614358e-12
3.53578629e-12
3.43636323e-12
3.33807754e-12
3.24123397e-12
3.14620908e-12
3.05339726e-12
2.96314352e-12
2.87552097e-12
2.79085178e-12
2.70934052e-12
2.63101312e-12
2.55586084e-12
2.48381285e-12
2.41474946e-12
2.34851083e-12
2.28490559e-12
2.22372339e-12
2.16475377e-12
2.10780994e-12
2.05275817e-12
1.99955218e-12
1.9482691e-12
1.89913766e-12
1.85254229e-12
1.80897366e-12
1.76883314e-12
1.73251302e-12
1.70014751e-12
1.67162808e-12
1.64662559e-12
1.62464859e-12
1.60512442e-12
1.58747519e-12
1.571178e-12
1.55581228e-12
1.54110225e-12
1.52697523e-12
1.51367843e-12
1.50203693e-12
1.49401982e-12
3.33062537e-14
7.93540657e-14
1.37968087e-13
2.18713559e-13
4.28087018e-13
2.62727422e-12
8.5819526e-12
1.89763342e-11
3.35150199e-11
5.13818429e-11
7.15854898e-11
9.35370683e-11
1.16956572e-10
1.41677447e-10
1.67368593e-10
1.93581644e-10
2.19710682e-10
2.45172356e-10
2.69543303e-10
2.92651602e-10
3.14560669e-10
3.35402446e-10
3.5532374e-10
3.74379622e-10
3.92602682e-10
4.099471e-10
4.26392347e-10
4.4200915e-10
4.57011934e-10
4.717273e-10
4.86515361e-10
5.01688762e-10
5.17467521e-10
5.33952042e-10
5.51133168e-10
5.68955143e-10
5.87400845e-10
6.06552892e-10
6.2655874e-10
6.47564992e-10
6.6965516e-10
6.92795096e-10
7.16845675e-10
7.41569046e-10
7.66731325e-10
7.92180761e-10
8.17915963e-10
8.44064795e-10
8.70801263e-10
8.98246699e-10
9.26406503e-10
9.55155618e-10
9.84266399e-10
1.01348375e-09
1.04261452e-09
1.07161496e-09
1.10061233e-09
1.12985482e-09
1.15961049e-09
1.19006781e-09
1.22129228e-09
1.25324069e-09
1.28582105e-09
1.31893482e-09
1.35247906e-09
1.3863204e-09
1.42027161e-09
1.45404039e-09
1.48726248e-09
1.51953552e-09
1.55051276e-09
1.57997061e-09
1.60784172e-09
1.63418034e-09
1.65901975e-09
1.68233554e-09
1.7039606e-09
1.72358046e-09
1.74079965e-09
1.75525864e-09
1.76674399e-09
1.77528004e-09
1.78123345e-09
1.78535866e-09
1.78875008e-09
1.79279845e-09
1.79904382e-09
1.80905539e-09
1.82435762e-09
1.84643162e-09
1.87673461e-09
1.91677302e-09
1.96815959e-09
2.03271786e-09
2.11256166e-09
2.21014435e-09
2.32834189e-09
2.47058132e-09
2.64095889e-09
2.84444597e-09
3.0866975e-09
3.37440456e-09
3.71554595e-09
4.1198027e-09
4.59888724e-09
5.16727762e-09
5.84246238e-09
6.64604593e-09
7.60557974e-09
8.7561984e-09
1.01433662e-08
1.18245959e-08
1.3873123e-08
1.63838811e-08
1.94810811e-08
2.33283202e-08
2.81351299e-08
3.41713467e-08
4.1783838e-08
5.14089859e-08
6.3562835e-08
7.88166544e-08
9.7712405e-08
1.20593611e-07
1.47393095e-07
1.7747544e-07
2.09660528e-07
2.42311291e-07
2.73739382e-07
3.02515417e-07
3.27605431e-07
3.4829892e-07
3.6451477e-07
3.76345924e-07
3.83649143e-07
3.8665334e-07
3.84782479e-07
3.77493958e-07
3.65796627e-07
3.48437005e-07
3.23550185e-07
2.8895024e-07
2.44606262e-07
1.95895688e-07
1.50636362e-07
1.12839655e-07
8.30901607e-08
6.05566527e-08
4.39429362e-08
3.19069011e-08
2.31616843e-08
1.68505506e-08
1.23361158e-08
9.0656366e-09
6.68636043e-09
4.94999096e-09
3.67864916e-09
2.74461036e-09
2.05600822e-09
1.54657767e-09
1.16836679e-09
8.86569632e-10
6.75847156e-10
5.17681784e-10
3.98497514e-10
3.08308822e-10
2.39765423e-10
1.87449302e-10
1.47345037e-10
1.16467112e-10
9.2588557e-11
7.40432789e-11
5.95810133e-11
4.82613022e-11
3.936739e-11
3.2356879e-11
2.68191465e-11
2.24371245e-11
1.89661475e-11
1.62163928e-11
1.4039701e-11
1.23196866e-11
1.09643486e-11
9.90056077e-12
9.06986627e-12
8.4252038e-12
7.92848345e-12
7.54886533e-12
7.26135152e-12
7.04558991e-12
6.88483773e-12
6.76563056e-12
6.67713407e-12
6.61063029e-12
6.55896517e-12
6.51636242e-12
6.47854202e-12
6.44207468e-12
6.40459298e-12
6.36420498e-12
6.31939592e-12
6.26925474e-12
6.21340648e-12
6.15212943e-12
6.08548555e-12
6.01329743e-12
5.93544436e-12
5.85313052e-12
5.76709482e-12
5.67730215e-12
5.58400226e-12
5.48761718e-12
5.38941994e-12
5.28973384e-12
5.18875332e-12
5.08633646e-12
4.98309392e-12
4.8796755e-12
4.77567928e-12
4.67120862e-12
4.56603178e-12
4.46048359e-12
4.35498287e-12
4.24952871e-12
4.14436456e-12
4.03978585e-12
3.93608788e-12
3.83339188e-12
3.73159207e-12
3.63059461e-12
3.53042163e-12
3.43119031e-12
3.33311634e-12
3.23651556e-12
3.14176645e-12
3.04925684e-12
2.95932389e-12
2.8720006e-12
2.78768227e-12
2.70651041e-12
2.62850503e-12
2.55365187e-12
2.48187972e-12
2.41307046e-12
2.34706629e-12
2.28367811e-12
2.22269818e-12
2.16391896e-12
2.10715683e-12
2.05228125e-12
1.99924882e-12
1.9481387e-12
1.89918002e-12
1.85275505e-12
1.80934783e-12
1.76936858e-12
1.73317543e-12
1.7009164e-12
1.67247721e-12
1.64752916e-12
1.62558425e-12
1.60607453e-12
1.58842711e-12
1.57212376e-12
1.55674768e-12
1.54202578e-12
1.52788707e-12
1.51457983e-12
1.50292956e-12
1.49490632e-12
1.2936896e-12
1.88395757e-12
2.39012894e-12
3.15813015e-12
7.39692821e-12
7.3000867e-11
1.91266583e-10
3.25142023e-10
4.46198495e-10
5.41546847e-10
6.09888708e-10
6.63189782e-10
7.1099825e-10
7.55564039e-10
7.94447913e-10
8.24483311e-10
8.43979195e-10
8.53230777e-10
8.55169117e-10
8.54470417e-10
8.54633981e-10
8.5689013e-10
8.60790517e-10
8.65263615e-10
8.69281307e-10
8.72123479e-10
8.73887633e-10
8.7586697e-10
8.79951302e-10
8.87583862e-10
8.99299403e-10
9.14736276e-10
9.32925234e-10
9.52641203e-10
9.72773793e-10
9.92828766e-10
1.01322888e-09
1.03493283e-09
1.05873135e-09
1.08481164e-09
1.11270787e-09
1.14149465e-09
1.1701138e-09
1.19765508e-09
1.22379588e-09
1.24895734e-09
1.27408431e-09
1.30012375e-09
1.32756233e-09
1.35626384e-09
1.38558635e-09
1.41465336e-09
1.44263989e-09
1.46905806e-09
1.49396174e-09
1.51799044e-09
1.54210324e-09
1.56717452e-09
1.59366872e-09
1.62154447e-09
1.6504094e-09
1.67981347e-09
1.70947356e-09
1.73925179e-09
1.7690991e-09
1.79884143e-09
1.82814846e-09
1.85653752e-09
1.88352656e-09
1.9087705e-09
1.93227694e-09
1.9544482e-09
1.97596564e-09
1.99753647e-09
2.01954993e-09
2.04202787e-09
2.06463946e-09
2.08677545e-09
2.10780527e-09
2.12729623e-09
2.14517039e-09
2.16179976e-09
2.17807737e-09
2.19540141e-09
2.21547307e-09
2.24018529e-09
2.27130097e-09
2.31036674e-09
2.35872018e-09
2.41758521e-09
2.48821706e-09
2.57206331e-09
2.67087435e-09
2.78685504e-09
2.92273928e-09
3.08181533e-09
3.26800691e-09
3.48604843e-09
3.74158344e-09
4.04125956e-09
4.39263072e-09
4.8045352e-09
5.28739977e-09
5.85378167e-09
6.51906619e-09
7.30142475e-09
8.22284841e-09
9.31040701e-09
1.05982392e-08
1.21298033e-08
1.3961443e-08
1.61619917e-08
1.88176156e-08
2.20390279e-08
2.59693316e-08
3.07949388e-08
3.67438514e-08
4.41013634e-08
5.32230303e-08
6.45371725e-08
7.85074643e-08
9.56025154e-08
1.16196231e-07
1.40397589e-07
1.6789899e-07
1.97900329e-07
2.29233396e-07
2.60315775e-07
2.89648653e-07
3.16028196e-07
3.38598377e-07
3.56646552e-07
3.70325604e-07
3.79728176e-07
3.84359884e-07
3.84619156e-07
3.79323367e-07
3.6994684e-07
3.55636988e-07
3.34723278e-07
3.05582249e-07
2.67334518e-07
2.22309204e-07
1.76736099e-07
1.36046062e-07
1.02376988e-07
7.58687366e-08
5.56880287e-08
4.06758311e-08
2.96860583e-08
2.16667183e-08
1.58464732e-08
1.16847082e-08
8.63244475e-09
6.39416919e-09
4.75050295e-09
3.5409477e-09
2.64856557e-09
1.98836968e-09
1.49851541e-09
1.13393843e-09
8.6172303e-10
6.57790345e-10
5.0447422e-10
3.88778807e-10
3.01119869e-10
2.34419475e-10
1.83452518e-10
1.44342533e-10
1.14202173e-10
9.08744527e-11
7.27432435e-11
5.85943022e-11
4.7513934e-11
3.88012985e-11
3.19315687e-11
2.65026598e-11
2.22050661e-11
1.87997132e-11
1.61009446e-11
1.39637442e-11
1.22741451e-11
1.0942014e-11
9.89563826e-12
9.07765714e-12
8.44194801e-12
7.95123695e-12
7.57529668e-12
7.28954342e-12
7.07399644e-12
6.9123676e-12
6.79153903e-12
6.70088263e-12
6.63173843e-12
6.57719894e-12
6.53165577e-12
6.49101297e-12
6.45183291e-12
6.41169111e-12
6.36878437e-12
6.32170219e-12
6.26964228e-12
6.21204482e-12
6.14900818e-12
6.08071414e-12
6.0073169e-12
5.9286439e-12
5.84559767e-12
5.75857062e-12
5.66783775e-12
5.57415075e-12
5.47767521e-12
5.37927572e-12
5.27908612e-12
5.17776113e-12
5.07545819e-12
4.97245974e-12
4.86906545e-12
4.76493622e-12
4.66051365e-12
4.55570941e-12
4.45058761e-12
4.34536959e-12
4.24014538e-12
4.13532541e-12
4.03117928e-12
3.92786588e-12
3.82545457e-12
3.72390101e-12
3.62315955e-12
3.52324962e-12
3.42428615e-12
3.32650302e-12
3.23023494e-12
3.1358621e-12
3.04376076e-12
2.95425605e-12
2.86731777e-12
2.78348572e-12
2.70276412e-12
2.62518458e-12
2.55072722e-12
2.47932045e-12
2.41084821e-12
2.34515527e-12
2.28205544e-12
2.2213444e-12
2.16281847e-12
2.10629817e-12
2.05165714e-12
1.99885575e-12
1.94797572e-12
1.89924672e-12
1.85304819e-12
1.80985634e-12
1.77008183e-12
1.73406342e-12
1.70194581e-12
1.67361257e-12
1.64873636e-12
1.62683379e-12
1.60734312e-12
1.58969802e-12
1.57338644e-12
1.55799661e-12
1.54325892e-12
1.52910464e-12
1.51578345e-12
1.5041215e-12
1.49609016e-12
3.10163599e-11
2.07679503e-11
1.73781302e-11
2.25833771e-11
8.85615388e-11
1.26918995e-09
2.21347945e-09
2.53042613e-09
2.43080181e-09
2.16091035e-09
1.87605005e-09
1.73865284e-09
1.71357482e-09
1.71220855e-09
1.68210267e-09
1.61379597e-09
1.51999799e-09
1.41934374e-09
1.33729096e-09
1.29224614e-09
1.27716195e-09
1.27517161e-09
1.27320602e-09
1.26574417e-09
1.25207824e-09
1.23384208e-09
1.21591458e-09
1.20726018e-09
1.21297363e-09
1.2318675e-09
1.25924135e-09
1.28972717e-09
1.31887959e-09
1.34386719e-09
1.36394924e-09
1.38142612e-09
1.40102045e-09
1.42624326e-09
1.45742994e-09
1.49234084e-09
1.5277517e-09
1.56069982e-09
1.58927227e-09
1.61291809e-09
1.63326375e-09
1.65345643e-09
1.67650078e-09
1.70368648e-09
1.73427527e-09
1.76622925e-09
1.79721285e-09
1.82536952e-09
1.84974716e-09
1.87058883e-09
1.88940375e-09
1.90854302e-09
1.93011981e-09
1.95512845e-09
1.98324731e-09
2.01326704e-09
2.04382813e-09
2.07417061e-09
2.1042093e-09
2.1341191e-09
2.1639959e-09
2.19351368e-09
2.22203823e-09
2.24879564e-09
2.27328425e-09
2.29548739e-09
2.31618073e-09
2.33674725e-09
2.35872499e-09
2.38323822e-09
2.41052424e-09
2.44008788e-09
2.47098099e-09
2.50202657e-09
2.53230562e-09
2.56141674e-09
2.58959733e-09
2.61778825e-09
2.64763684e-09
2.68135718e-09
2.7213244e-09
2.7698738e-09
2.82884471e-09
2.89960297e-09
2.98318408e-09
3.08052854e-09
3.19275624e-09
3.32138221e-09
3.46846101e-09
3.63672752e-09
3.82967261e-09
4.05154837e-09
4.30737532e-09
4.60326152e-09
4.94632832e-09
5.34477975e-09
5.80800622e-09
6.34681528e-09
6.97384725e-09
7.70429962e-09
8.55709051e-09
9.5535724e-09
1.07195168e-08
1.20868041e-08
1.36954634e-08
1.55962463e-08
1.78554465e-08
2.05503421e-08
2.37767603e-08
2.76574544e-08
3.234933e-08
3.80556419e-08
4.50108187e-08
5.35026549e-08
6.38806845e-08
7.65499519e-08
9.19034537e-08
1.10306449e-07
1.31989375e-07
1.56882791e-07
1.84529297e-07
2.14055429e-07
2.44380849e-07
2.73944553e-07
3.01410153e-07
3.25741614e-07
3.46200004e-07
3.61972996e-07
3.73514249e-07
3.80860611e-07
3.83059762e-07
3.80891186e-07
3.73923711e-07
3.62576907e-07
3.45591146e-07
3.21495145e-07
2.89221427e-07
2.49295896e-07
2.05334105e-07
1.62862197e-07
1.25602422e-07
9.4893284e-08
7.06735835e-08
5.21519452e-08
3.82882784e-08
2.80677906e-08
2.05716454e-08
1.51056343e-08
1.11917087e-08
8.30081365e-09
6.16869191e-09
4.59556031e-09
3.43338476e-09
2.57318994e-09
1.93507849e-09
1.46052365e-09
1.10664867e-09
8.41984836e-10
6.43420035e-10
4.93947338e-10
3.81022589e-10
2.95375276e-10
2.30143498e-10
1.8025314e-10
1.41937497e-10
1.12387008e-10
8.95002346e-11
7.17007784e-11
5.78030465e-11
4.6914981e-11
3.83477507e-11
3.15909888e-11
2.62494951e-11
2.20197215e-11
1.86670659e-11
1.600922e-11
1.39036927e-11
1.22384503e-11
1.0924858e-11
9.89236453e-12
9.08451446e-12
8.45592268e-12
7.96993493e-12
7.59682595e-12
7.31239958e-12
7.09699391e-12
6.93462097e-12
6.81241298e-12
6.71993279e-12
6.64865163e-12
6.59179716e-12
6.54388639e-12
6.50091528e-12
6.45950809e-12
6.41723325e-12
6.37233267e-12
6.32342503e-12
6.26973444e-12
6.21066445e-12
6.14628286e-12
6.07678009e-12
6.002378e-12
5.92290164e-12
5.83918247e-12
5.75151709e-12
5.66019973e-12
5.56612164e-12
5.46939771e-12
5.37078873e-12
5.27038717e-12
5.1689117e-12
5.06659491e-12
4.96364039e-12
4.86027323e-12
4.75617241e-12
4.65185167e-12
4.54726241e-12
4.44239842e-12
4.33741458e-12
4.23243783e-12
4.12790302e-12
4.02406393e-12
3.92103638e-12
3.81886991e-12
3.71753789e-12
3.61701148e-12
3.51731852e-12
3.41858538e-12
3.32105895e-12
3.22507994e-12
3.13102645e-12
3.039267e-12
2.95011746e-12
2.86347856e-12
2.78007301e-12
2.69971568e-12
2.62248243e-12
2.54834732e-12
2.47723827e-12
2.40904087e-12
2.343602e-12
2.28073785e-12
2.22024681e-12
2.16192825e-12
2.10560605e-12
2.05115724e-12
1.99854517e-12
1.94785361e-12
1.89931254e-12
1.85329916e-12
1.81028385e-12
1.77067389e-12
1.73479839e-12
1.70279563e-12
1.67454813e-12
1.64972993e-12
1.62786147e-12
1.60838607e-12
1.59074272e-12
1.57442434e-12
1.55902319e-12
1.54427255e-12
1.53010558e-12
1.51677303e-12
1.50510156e-12
1.49706367e-12
3.67749165e-12
4.85171536e-12
5.04893349e-12
4.89928007e-12
4.62793572e-12
4.31684431e-12
3.9995939e-12
3.69386279e-12
3.40669792e-12
3.14463119e-12
2.91058166e-12
2.70411945e-12
2.52305638e-12
2.36479186e-12
2.22686147e-12
2.10693539e-12
2.0025966e-12
1.91150336e-12
1.83187518e-12
1.76226779e-12
1.70125671e-12
1.64756845e-12
1.60025937e-12
1.55855518e-12
1.52168863e-12
1.48898962e-12
1.45995381e-12
1.43413605e-12
1.41117158e-12
1.39073108e-12
1.37251689e-12
1.35627034e-12
1.34183319e-12
1.32906397e-12
1.31788028e-12
1.30833861e-12
1.30176055e-12
1.34728161e-12
3.3376385e-12
6.80397184e-11
2.18820055e-12
3.50033487e-12
4.14304204e-12
4.4198034e-12
4.49109236e-12
4.44326954e-12
4.31688969e-12
4.13802535e-12
3.92559919e-12
3.69875401e-12
3.47186853e-12
3.25302116e-12
3.04686031e-12
2.85636441e-12
2.68276337e-12
2.5260053e-12
2.38537085e-12
2.25964425e-12
2.14748246e-12
2.04763878e-12
1.95889293e-12
1.8799457e-12
1.80966593e-12
1.74713147e-12
1.69148934e-12
1.64188134e-12
1.59761515e-12
1.55808988e-12
1.52278054e-12
1.49123973e-12
1.46306455e-12
1.43786092e-12
1.41536497e-12
1.39536044e-12
1.37768805e-12
1.36230497e-12
1.34959675e-12
1.34811898e-12
1.64139817e-12
9.32896182e-12
1.35086685e-12
2.43427242e-12
3.15288712e-12
3.59966069e-12
3.85741251e-12
3.98746107e-12
4.0285383e-12
4.00292322e-12
3.92619495e-12
3.81269311e-12
3.67453323e-12
3.52084615e-12
3.35899113e-12
3.19531462e-12
3.03441141e-12
2.87925248e-12
2.73184958e-12
2.5936205e-12
2.46515339e-12
2.34650451e-12
2.23760941e-12
2.13820139e-12
2.04770499e-12
1.96549667e-12
1.8910378e-12
1.8237425e-12
1.76300785e-12
1.70821742e-12
1.65878588e-12
1.61421676e-12
1.57410791e-12
1.53803828e-12
1.50562467e-12
1.47653872e-12
1.45052335e-12
1.42734957e-12
1.40695191e-12
1.39011093e-12
1.4069144e-12
2.12255162e-12
1.14689584e-12
2.06031088e-12
2.73418017e-12
3.20110767e-12
3.50548268e-12
3.68790364e-12
3.78075949e-12
3.80727808e-12
3.78399711e-12
3.72323988e-12
3.6346606e-12
3.52582923e-12
3.40283058e-12
3.27095556e-12
3.13463155e-12
2.99730279e-12
2.86167384e-12
2.72995155e-12
2.60370813e-12
2.48395613e-12
2.37138435e-12
2.26639715e-12
2.16907302e-12
2.07929954e-12
1.99684476e-12
1.92142715e-12