/*--------------------------------*- C++ -*----------------------------------*\
  =========                 |
  \\      /  F ield         | OpenFOAM: The Open Source CFD Toolbox
   \\    /   O peration     | Website:  https://openfoam.org
    \\  /    A nd           | Version:  6
     \\/     M anipulation  |
\*---------------------------------------------------------------------------*/
FoamFile
{
    version     2.0;
    format      ascii;
    class       volScalarField;
    location    "25000";
    object      NH3;
}
// * * * * * * * * * * * * * * * * * * * * * * * * * * * * * * * * * * * * * //

dimensions      [0 0 0 0 0 0 0];

internalField   nonuniform List<scalar> 
44870
(
7.33113509e-105
9.0559137e-103
1.11312941e-100
1.38365622e-98
1.7407663e-96
2.21792857e-94
2.86378905e-92
3.74984998e-90
4.98300661e-88
6.72466718e-86
9.22241456e-84
1.28604937e-81
1.82436219e-79
2.63367537e-77
3.86982786e-75
5.78831588e-73
8.81264847e-71
1.36557377e-68
2.1529841e-66
3.45290047e-64
5.63034893e-62
9.33155024e-60
1.57107478e-57
2.68598118e-55
4.66019537e-53
8.20223145e-51
1.46338051e-48
2.64547455e-46
4.84077158e-44
8.96131077e-42
1.67552662e-39
3.16123705e-37
6.00060628e-35
1.14350251e-32
2.17417146e-30
4.09929453e-28
7.54994955e-26
1.3316029e-23
2.11821245e-21
2.85351628e-19
5.2934462e-105
6.49901973e-103
7.94900727e-101
9.85838239e-99
1.24243862e-96
1.5942331e-94
2.08699088e-92
2.79223952e-90
3.82419719e-88
5.36758534e-86
7.72725088e-84
1.14128118e-81
1.72913283e-79
2.68603383e-77
4.27370864e-75
6.95852098e-73
1.15765037e-70
1.96571762e-68
3.40102606e-66
5.99037853e-64
1.0723319e-61
1.94987772e-59
3.59558613e-57
6.72397767e-55
1.27295724e-52
2.44137484e-50
4.73362406e-48
9.29247668e-46
1.842178e-43
3.69704942e-41
7.48496664e-39
1.53415038e-36
3.16788062e-34
6.62258033e-32
1.39102358e-29
2.95091295e-27
6.23332184e-25
1.31430737e-22
2.59128248e-20
4.86281663e-18
2.27308345e-105
2.7190855e-103
3.27397529e-101
4.07330681e-99
5.2795155e-97
7.1686915e-95
1.02360806e-92
1.53852258e-90
2.42938381e-88
4.01597139e-86
6.91356539e-84
1.23233837e-81
2.26142619e-79
4.25053312e-77
8.14336888e-75
1.58618253e-72
3.12822219e-70
6.2400818e-68
1.25533475e-65
2.5466509e-63
5.19948006e-61
1.06918644e-58
2.20965005e-56
4.59855626e-54
9.60960142e-52
2.02327654e-49
4.27472515e-47
9.1081534e-45
1.94605313e-42
4.19980036e-40
9.08073538e-38
1.98697415e-35
4.34995872e-33
9.66408411e-31
2.1463665e-28
4.85165256e-26
1.09492823e-23
2.53511534e-21
5.63355853e-19
1.28644708e-16
4.72504562e-106
5.64917686e-104
7.65599434e-102
1.20223595e-99
2.15362155e-97
4.27228174e-95
9.09221089e-93
2.02220617e-90
4.61204157e-88
1.06525157e-85
2.47187569e-83
5.73450059e-81
1.32582785e-78
3.05103827e-76
6.98041369e-74
1.58808922e-71
3.59192977e-69
8.08378269e-67
1.81004713e-64
4.03597218e-62
8.96729216e-60
1.98688171e-57
4.39120138e-55
9.69232415e-53
2.13595416e-50
4.70768055e-48
1.03692437e-45
2.286995e-43
5.04384557e-41
1.11566677e-38
2.46835702e-36
5.48550909e-34
1.21930133e-31
2.72650767e-29
6.09750075e-27
1.37110678e-24
3.07490812e-22
6.90557961e-20
1.50068792e-17
3.17204629e-15
6.07984111e-107
1.87675277e-104
6.31417365e-102
2.11355013e-99
6.82502142e-97
2.11362798e-94
6.28497883e-92
1.79997115e-89
4.98218112e-87
1.33736433e-84
3.49264083e-82
8.90070796e-80
2.21943822e-77
5.42846723e-75
1.30526118e-72
3.0915048e-70
7.22562403e-68
1.66919926e-65
3.8166937e-63
8.64901211e-61
1.94458997e-58
4.34220108e-56
9.63807657e-54
2.1281998e-51
4.67811563e-49
1.02436713e-46
2.23561431e-44
4.86440498e-42
1.05589838e-39
2.28695433e-37
4.94471766e-35
1.06745319e-32
2.30163552e-30
4.9572207e-28
1.06682611e-25
2.29405567e-23
4.9303414e-21
1.05897966e-18
2.27345212e-16
4.90450721e-14
9.10933652e-18
3.81278321e-17
9.96531496e-17
2.15552946e-16
4.26973408e-16
9.6163058e-16
2.78573538e-15
8.67509488e-15
2.47526031e-14
6.26979361e-14
1.41902574e-13
2.93238872e-13
5.61224645e-13
1.01124003e-12
1.73300158e-12
2.84961709e-12
4.52955982e-12
6.98975257e-12
1.05311724e-11
1.55196474e-11
2.24518901e-11
3.19363413e-11
4.47557325e-11
6.19021435e-11
8.46149586e-11
1.14485934e-10
1.53352906e-10
2.03844242e-10
2.68659842e-10
3.5190753e-10
4.5786339e-10
5.92183889e-10
7.61715125e-10
9.74023515e-10
1.23944747e-09
1.56849666e-09
1.97588466e-09
2.47643152e-09
3.09010724e-09
3.83804117e-09
4.74707597e-09
5.84728947e-09
7.17400206e-09
8.76695602e-09
1.06707783e-08
1.29332968e-08
1.5606503e-08
1.8746654e-08
2.24144744e-08
2.66758148e-08
3.16007507e-08
3.72644678e-08
4.37444947e-08
5.11215902e-08
5.94748313e-08
6.88818169e-08
7.94126401e-08
9.11298037e-08
1.04084458e-07
1.18317127e-07
1.3385794e-07
1.50726696e-07
1.68937953e-07
1.88498864e-07
2.09422451e-07
2.31718995e-07
2.55415236e-07
2.80537017e-07
3.0712519e-07
3.35207538e-07
3.64807918e-07
3.95926672e-07
4.28533865e-07
4.62594559e-07
4.98018197e-07
5.34754591e-07
5.72715081e-07
6.11834579e-07
6.52060335e-07
6.93367409e-07
7.35743506e-07
7.79190253e-07
8.23725454e-07
8.69365396e-07
9.1612697e-07
9.64014598e-07
1.01304418e-06
1.06321358e-06
1.11453532e-06
1.16703739e-06
1.22075748e-06
1.27575665e-06
1.33210397e-06
1.38988307e-06
1.44918858e-06
1.51012491e-06
1.5728043e-06
1.63735164e-06
1.70390638e-06
1.77263571e-06
1.84372994e-06
1.91740793e-06
1.99392238e-06
2.07357505e-06
2.15670771e-06
2.24373649e-06
2.33514931e-06
2.43150271e-06
2.53348817e-06
2.64191611e-06
2.75777806e-06
2.88226643e-06
3.01683542e-06
3.16330436e-06
3.32395244e-06
3.50166315e-06
3.70012679e-06
3.92410654e-06
4.17977497e-06
4.4750989e-06
4.82019932e-06
5.22736792e-06
5.71009324e-06
6.28007341e-06
6.94157634e-06
7.68427533e-06
8.47864647e-06
9.2781572e-06
1.00286643e-05
1.06793542e-05
1.11901874e-05
1.15344589e-05
1.16974511e-05
1.16734029e-05
1.14627189e-05
1.10690536e-05
1.04983708e-05
9.75801682e-06
8.85750861e-06
7.81584686e-06
6.6396426e-06
5.37148301e-06
4.10606416e-06
2.98077677e-06
2.10347789e-06
1.47343232e-06
1.03337568e-06
7.27751544e-07
5.15879881e-07
3.67369853e-07
2.62793053e-07
1.88798485e-07
1.36189009e-07
9.86181465e-08
7.16734472e-08
5.22728717e-08
3.82507552e-08
2.80791419e-08
2.06754294e-08
1.52692298e-08
1.13096614e-08
8.40114319e-09
6.25855749e-09
4.67574183e-09
3.50317909e-09
2.63212682e-09
1.98329834e-09
1.498714e-09
1.1358534e-09
8.63447551e-10
6.58438336e-10
5.03777643e-10
3.86829344e-10
2.98207401e-10
2.30898025e-10
1.79656665e-10
1.40581786e-10
1.10741378e-10
8.79253118e-11
7.04666638e-11
5.71054412e-11
4.68867018e-11
3.90847929e-11
3.31470294e-11
2.86511876e-11
2.52731522e-11
2.27630855e-11
2.09281855e-11
1.96193934e-11
1.87206137e-11
1.81402675e-11
1.78063365e-11
1.76628718e-11
1.76655102e-11
1.77781842e-11
1.79724154e-11
1.82261511e-11
1.85210426e-11
1.88420534e-11
1.91778702e-11
1.95203726e-11
1.98635719e-11
2.02020894e-11
2.05321978e-11
2.08523794e-11
2.11610736e-11
2.14581637e-11
2.1741098e-11
2.20101035e-11
2.22669612e-11
2.25124775e-11
2.2746601e-11
2.29693511e-11
2.31820482e-11
2.33863207e-11
2.35839042e-11
2.37749673e-11
2.396108e-11
2.41424732e-11
2.43179327e-11
2.44892904e-11
2.46555695e-11
2.48158864e-11
2.49702766e-11
2.51186682e-11
2.52609295e-11
2.53970314e-11
2.55270951e-11
2.56509708e-11
2.57677869e-11
2.58760085e-11
2.59737502e-11
2.60591065e-11
2.61305198e-11
2.61870298e-11
2.62282512e-11
2.62541422e-11
2.62654774e-11
2.62659809e-11
2.6256401e-11
2.62377932e-11
2.62118323e-11
2.61801674e-11
2.61442363e-11
2.61052484e-11
2.60641905e-11
2.60218119e-11
2.59785807e-11
2.5934618e-11
2.58896156e-11
2.58427532e-11
2.57926462e-11
2.57373794e-11
2.56746918e-11
2.56023076e-11
2.55179381e-11
2.54249084e-11
2.53218633e-11
2.52109014e-11
2.50950677e-11
2.49774844e-11
2.4861016e-11
2.47480153e-11
2.46402182e-11
2.45387839e-11
2.44444673e-11
2.43579659e-11
2.42805937e-11
2.42157414e-11
2.41722356e-11
1.87962928e-16
6.76814773e-16
1.54277481e-15
3.02787508e-15
5.66664215e-15
1.4432779e-14
4.95390053e-14
1.62064805e-13
4.50660452e-13
1.08200258e-12
2.30289047e-12
4.47046376e-12
8.05726523e-12
1.3717115e-11
2.22972256e-11
3.49068171e-11
5.29922284e-11
7.83194103e-11
1.13190403e-10
1.60212235e-10
2.22688893e-10
3.04422601e-10
4.0990167e-10
5.44680002e-10
7.14675629e-10
9.27762908e-10
1.19182166e-09
1.51721316e-09
1.91436693e-09
2.39628247e-09
2.97576079e-09
3.6678959e-09
4.48805007e-09
5.45327643e-09
6.58217863e-09
7.8941893e-09
9.41189603e-09
1.11574304e-08
1.31577219e-08
1.54378798e-08
1.80286147e-08
2.09577912e-08
2.42578071e-08
2.79589707e-08
3.20933231e-08
3.66927148e-08
4.17901088e-08
4.7419962e-08
5.36181283e-08
6.04221498e-08
6.78708512e-08
7.60053329e-08
8.48682042e-08
9.45047654e-08
1.04961735e-07
1.16287895e-07
1.28531426e-07
1.41739868e-07
1.55957321e-07
1.71224575e-07
1.87577521e-07
2.05048574e-07
2.2366675e-07
2.43460298e-07
2.64459922e-07
2.86694356e-07
3.10203942e-07
3.35026675e-07
3.61206648e-07
3.8877532e-07
4.17756346e-07
4.48151041e-07
4.7993606e-07
5.13079552e-07
5.47511242e-07
5.83188674e-07
6.20047154e-07
6.58043447e-07
6.97146023e-07
7.37349359e-07
7.7865108e-07
8.21062543e-07
8.64603826e-07
9.09287946e-07
9.55125446e-07
1.00211898e-06
1.0502796e-06
1.09961133e-06
1.15013184e-06
1.20187975e-06
1.25490129e-06
1.3092621e-06
1.3650393e-06
1.42231943e-06
1.48119698e-06
1.54177327e-06
1.60415632e-06
1.66846705e-06
1.7348425e-06
1.80345077e-06
1.87448275e-06
1.94816105e-06
2.02474567e-06
2.10454729e-06
2.18791735e-06
2.27528523e-06
2.36714797e-06
2.46407627e-06
2.56677749e-06
2.67608114e-06
2.79299308e-06
2.91872872e-06
3.05477569e-06
3.2029836e-06
3.36566763e-06
3.54575233e-06
3.74697097e-06
3.97412387e-06
4.23339882e-06
4.53272279e-06
4.88207133e-06
5.29338839e-06
5.77948184e-06
6.35092203e-06
7.01050925e-06
7.74651533e-06
8.52872533e-06
9.31100449e-06
1.00405591e-05
1.06683526e-05
1.11559736e-05
1.14779241e-05
1.16202185e-05
1.15774613e-05
1.13502909e-05
1.09424216e-05
1.03601389e-05
9.6112428e-06
8.70599619e-06
7.66125902e-06
6.48789125e-06
5.23250417e-06
3.99112077e-06
2.89844894e-06
2.05055431e-06
1.44071612e-06
1.01310536e-06
7.15043204e-07
5.07725973e-07
3.62091867e-07
2.59336851e-07
1.86511875e-07
1.34660113e-07
9.75867936e-08
7.09725201e-08
5.17930441e-08
3.79199537e-08
2.78495668e-08
2.05151604e-08
1.51567759e-08
1.12304019e-08
8.34504569e-09
6.21869334e-09
4.64730115e-09
3.48280928e-09
2.6174808e-09
1.97272664e-09
1.49105408e-09
1.13028287e-09
8.59382509e-10
6.55462561e-10
5.0159326e-10
3.85222416e-10
2.97024299e-10
2.30025997e-10
1.79012932e-10
1.40108099e-10
1.1039438e-10
8.76728779e-11
7.02850253e-11
5.69769407e-11
4.67981201e-11
3.90261587e-11
3.3110826e-11
2.86317603e-11
2.5266175e-11
2.27651585e-11
2.09366737e-11
1.96323478e-11
1.87365645e-11
1.81579965e-11
1.78248594e-11
1.76815384e-11
1.76838568e-11
1.77957612e-11
1.79889409e-11
1.82415667e-11
1.85353752e-11
1.88551146e-11
1.9189506e-11
1.95307524e-11
1.98729217e-11
2.02105376e-11
2.05395091e-11
2.08585276e-11
2.11663836e-11
2.14629369e-11
2.17452642e-11
2.20134414e-11
2.22696042e-11
2.25146912e-11
2.27485157e-11
2.29708274e-11
2.31829588e-11
2.33867613e-11
2.35840254e-11
2.37748093e-11
2.39605433e-11
2.4141546e-11
2.43165481e-11
2.44876433e-11
2.46536373e-11
2.48136252e-11
2.49676909e-11
2.51158014e-11
2.52578119e-11
2.53936622e-11
2.55234649e-11
2.56470818e-11
2.57636468e-11
2.58716242e-11
2.59691413e-11
2.60543118e-11
2.61255922e-11
2.61820272e-11
2.62232302e-11
2.62491412e-11
2.62604448e-11
2.6261101e-11
2.62516512e-11
2.62331575e-11
2.62073093e-11
2.61757527e-11
2.61399169e-11
2.61010046e-11
2.60599989e-11
2.60176476e-11
2.59744188e-11
2.59304349e-11
2.58853903e-11
2.58384694e-11
2.57882945e-11
2.57329605e-11
2.567022e-11
2.55978135e-11
2.55133505e-11
2.54205352e-11
2.53175637e-11
2.52067341e-11
2.50910632e-11
2.49736542e-11
2.48573585e-11
2.47445196e-11
2.46368668e-11
2.45355562e-11
2.4441342e-11
2.43549222e-11
2.42776124e-11
2.42128045e-11
2.41693228e-11
7.0705976e-15
2.22359302e-14
4.54508076e-14
8.23616303e-14
1.47893649e-13
4.82405304e-13
1.91509761e-12
6.09941375e-12
1.55677218e-11
3.37103603e-11
6.45544848e-11
1.12815833e-10
1.83842648e-10
2.84174819e-10
4.21491121e-10
6.0500368e-10
8.45115991e-10
1.1529441e-09
1.54028031e-09
2.01865546e-09
2.60024684e-09
3.29755627e-09
4.12438557e-09
5.09616393e-09
6.22923251e-09
7.54263345e-09
9.05298632e-09
1.07786785e-08
1.27351364e-08
1.49375426e-08
1.73987597e-08
2.01331927e-08
2.31555008e-08
2.64838106e-08
3.01371286e-08
3.41366802e-08
3.85036569e-08
4.32578417e-08
4.84196467e-08
5.40045589e-08
6.00314907e-08
6.65138285e-08
7.34712256e-08
8.09178975e-08
8.88696267e-08
9.73379205e-08
1.06331279e-07
1.15855493e-07
1.25914748e-07
1.3651412e-07
1.4766064e-07
1.59366881e-07
1.7164974e-07
1.84530629e-07
1.98033211e-07
2.12182467e-07
2.27003153e-07
2.42521004e-07
2.58763224e-07
2.7576013e-07
2.93545784e-07
3.12159613e-07
3.31643255e-07
3.52046483e-07
3.73415076e-07
3.95797077e-07
4.19248176e-07
4.43814751e-07
4.69539518e-07
4.96450538e-07
5.24562748e-07
5.53871207e-07
5.84355414e-07
6.15989314e-07
6.48734279e-07
6.82572701e-07
7.1748936e-07
7.53487418e-07
7.90580657e-07
8.28796554e-07
8.68158591e-07
9.08689639e-07
9.50406459e-07
9.93315471e-07
1.0374165e-06
1.08271123e-06
1.12920786e-06
1.17692965e-06
1.22591157e-06
1.27620929e-06
1.32789356e-06
1.38104564e-06
1.43575258e-06
1.49210449e-06
1.5501937e-06
1.61011405e-06
1.67196504e-06
1.73586075e-06
1.80193566e-06
1.87036149e-06
1.94133302e-06
2.0150842e-06
2.09189304e-06
2.17209037e-06
2.25605022e-06
2.34422811e-06
2.43714204e-06
2.53539622e-06
2.63972793e-06
2.75100799e-06
2.87027737e-06
2.99880556e-06
3.13814067e-06
3.29019844e-06
3.45737138e-06
3.64266605e-06
3.84989807e-06
4.08393012e-06
4.35095321e-06
4.65876039e-06
5.01694609e-06
5.43661314e-06
5.92900459e-06
6.50220001e-06
7.15591827e-06
7.87565274e-06
8.63002792e-06
9.37399372e-06
1.00577261e-05
1.06359274e-05
1.10735614e-05
1.13476091e-05
1.14455775e-05
1.13628241e-05
1.11005406e-05
1.06625851e-05
1.00560918e-05
9.2899556e-06
8.37648627e-06
7.32576484e-06
6.16082314e-06
4.93588049e-06
3.74992292e-06
2.72761361e-06
1.94085008e-06
1.37236244e-06
9.70449979e-07
6.88142538e-07
4.90371378e-07
3.50822629e-07
2.51936958e-07
1.81604881e-07
1.31372086e-07
9.53650661e-08
6.94604287e-08
5.07564548e-08
3.72043917e-08
2.73523769e-08
2.01677152e-08
1.49127762e-08
1.10582974e-08
8.22315399e-09
6.13202196e-09
4.58543179e-09
3.43847371e-09
2.58558787e-09
1.94969573e-09
1.47435981e-09
1.11813782e-09
8.50516829e-10
6.48970631e-10
4.96826619e-10
3.81715117e-10
2.94441781e-10
2.28122303e-10
1.7760718e-10
1.39073857e-10
1.09636815e-10
8.71218635e-11
6.98886488e-11
5.66965936e-11
4.66049363e-11
3.88984382e-11
3.30321669e-11
2.85896973e-11
2.52511773e-11
2.2769904e-11
2.09555405e-11
1.96610007e-11
1.87716225e-11
1.81967873e-11
1.78654582e-11
1.77225001e-11
1.77240545e-11
1.78342962e-11
1.8025222e-11
1.82753203e-11
1.85665492e-11
1.88836037e-11
1.92152403e-11
1.95537946e-11
1.98933171e-11
2.02286379e-11
2.05554485e-11
2.08723828e-11
2.1178362e-11
2.14732056e-11
2.17539996e-11
2.20207664e-11
2.22757579e-11
2.25197448e-11
2.27525121e-11
2.29738342e-11
2.31850304e-11
2.33879954e-11
2.35844131e-11
2.37743456e-11
2.39590918e-11
2.41392331e-11
2.43137189e-11
2.44840972e-11
2.46493632e-11
2.48086709e-11
2.49621002e-11
2.51096027e-11
2.52510211e-11
2.53862989e-11
2.55155465e-11
2.56386106e-11
2.57546199e-11
2.58620551e-11
2.59590783e-11
2.60438414e-11
2.61148269e-11
2.61710923e-11
2.62122501e-11
2.62382008e-11
2.62494198e-11
2.62504215e-11
2.62412474e-11
2.62229965e-11
2.61973909e-11
2.61660685e-11
2.61304387e-11
2.60916897e-11
2.60507966e-11
2.6008504e-11
2.59652798e-11
2.59212492e-11
2.58761123e-11
2.58290637e-11
2.57787412e-11
2.57232613e-11
2.5660406e-11
2.55879584e-11
2.55037512e-11
2.54109642e-11
2.53081249e-11
2.51975847e-11
2.50822695e-11
2.49652414e-11
2.4849323e-11
2.47368371e-11
2.46295e-11
2.45284602e-11
2.443447e-11
2.43482289e-11
2.4271056e-11
2.42063461e-11
2.41629211e-11
2.84088125e-13
7.07106697e-13
1.27811148e-12
2.04417082e-12
3.49268209e-12
1.67690531e-11
6.88958567e-11
1.93564768e-10
4.22052255e-10
7.78397161e-10
1.27667464e-09
1.92706186e-09
2.74293827e-09
3.74752697e-09
4.96856662e-09
6.43573991e-09
8.16909612e-09
1.01776005e-08
1.24587609e-08
1.50033924e-08
1.78085508e-08
2.08801645e-08
2.42396277e-08
2.79116298e-08
3.19252243e-08
3.62964692e-08
4.10275441e-08
4.61077941e-08
5.1519708e-08
5.72549556e-08
6.3319701e-08
6.97393803e-08
7.65532025e-08
8.38051928e-08
9.15305925e-08
9.97477412e-08
1.08454785e-07
1.17637939e-07
1.27281075e-07
1.37372447e-07
1.47915e-07
1.58916068e-07
1.70390563e-07
1.82338556e-07
1.94747493e-07
2.07585402e-07
2.20811337e-07
2.34387114e-07
2.48288096e-07
2.6250807e-07
2.77059025e-07
2.91965361e-07
3.07252964e-07
3.22942518e-07
3.39043235e-07
3.55556522e-07
3.72482157e-07
3.89828304e-07
4.07617799e-07
4.25888807e-07
4.44694295e-07
4.64094294e-07
4.84152117e-07
5.04929253e-07
5.26482392e-07
5.48863474e-07
5.72121525e-07
5.96291317e-07
6.21395871e-07
6.47439285e-07
6.74411467e-07
7.0229076e-07
7.3105709e-07
7.60702259e-07
7.91235176e-07
8.22692198e-07
8.55132224e-07
8.88622575e-07
9.23230497e-07
9.59012227e-07
9.9601118e-07
1.03424329e-06
1.07370525e-06
1.11438838e-06
1.15628064e-06
1.19938996e-06
1.24374028e-06
1.28938308e-06
1.33639185e-06
1.38485659e-06
1.43487733e-06
1.48655383e-06
1.53997953e-06
1.59524204e-06
1.65242432e-06
1.71160646e-06
1.77287623e-06
1.8363421e-06
1.90214043e-06
1.97044997e-06
2.04148021e-06
2.11548871e-06
2.19278381e-06
2.27372798e-06
2.35873225e-06
2.44828086e-06
2.54293057e-06
2.64333589e-06
2.75027518e-06
2.8646769e-06
2.98764476e-06
3.12051582e-06
3.26492225e-06
3.42287469e-06
3.59686953e-06
3.79001312e-06
4.00621046e-06
4.25036202e-06
4.52857668e-06
4.84831281e-06
5.21842136e-06
5.6485316e-06
6.14735931e-06
6.71922779e-06
7.3596342e-06
8.05066939e-06
8.7600861e-06
9.4449287e-06
1.00598462e-05
1.05647621e-05
1.09292479e-05
1.11336364e-05
1.11674103e-05
1.10269571e-05
1.07144575e-05
1.02339792e-05
9.59439852e-06
8.80658768e-06
7.87771308e-06
6.82544273e-06
5.68255562e-06
4.51223333e-06
3.41466019e-06
2.49407306e-06
1.79031953e-06
1.27739761e-06
9.10470814e-07
6.499388e-07
4.6548277e-07
3.34586673e-07
2.4122333e-07
1.74471564e-07
1.26573518e-07
9.21137591e-08
6.72415068e-08
4.92314025e-08
3.61491957e-08
2.66176458e-08
1.96533475e-08
1.45509973e-08
1.08027787e-08
8.04197171e-09
6.00305408e-09
4.49327871e-09
3.37237492e-09
2.53799907e-09
1.9153035e-09
1.44941225e-09
1.09997671e-09
8.37251816e-10
6.39252295e-10
4.8968787e-10
3.76460462e-10
2.90572019e-10
2.25264082e-10
1.75499137e-10
1.37523442e-10
1.08501338e-10
8.62962102e-11
6.92949671e-11
5.62769467e-11
4.63160436e-11
3.87078035e-11
3.29151588e-11
2.85274894e-11
2.52294256e-11
2.27777436e-11
2.09846276e-11
1.97047198e-11
1.88247563e-11
1.82554402e-11
1.79268286e-11
1.77843983e-11
1.77846815e-11
1.78924518e-11
1.80800203e-11
1.83262025e-11
1.86133457e-11
1.89264546e-11
1.92543885e-11
1.95888642e-11
1.99240328e-11
2.02555738e-11
2.05794728e-11
2.08937636e-11
2.11968016e-11
2.14885757e-11
2.17668399e-11
2.20318943e-11
2.22854682e-11
2.25276057e-11
2.27584081e-11
2.2978203e-11
2.31883011e-11
2.33901783e-11
2.35851645e-11
2.37735966e-11
2.39568852e-11
2.41357831e-11
2.43096078e-11
2.44788367e-11
2.46429104e-11
2.48012287e-11
2.49537642e-11
2.51003558e-11
2.52408396e-11
2.53752351e-11
2.55036659e-11
2.56259153e-11
2.57410887e-11
2.58477027e-11
2.59439793e-11
2.60281237e-11
2.60986559e-11
2.61546542e-11
2.6195733e-11
2.62217399e-11
2.62327841e-11
2.62343453e-11
2.62255602e-11
2.62076583e-11
2.61824089e-11
2.61514325e-11
2.61161074e-11
2.60775995e-11
2.6036872e-11
2.59946646e-11
2.59514452e-11
2.59073428e-11
2.58620665e-11
2.58148257e-11
2.57642815e-11
2.5708583e-11
2.5645556e-11
2.55730658e-11
2.54894387e-11
2.53964228e-11
2.52938323e-11
2.51837327e-11
2.50689526e-11
2.49524968e-11
2.48371451e-11
2.47251898e-11
2.46183272e-11
2.45176953e-11
2.44240425e-11
2.43380704e-11
2.42611038e-11
2.41965425e-11
2.41532058e-11
1.10279924e-11
1.72570888e-11
2.31595966e-11
2.99351876e-11
5.2146229e-11
4.39794455e-10
1.65884764e-09
3.83512417e-09
6.82889715e-09
1.03840756e-08
1.42308548e-08
1.82632161e-08
2.25961323e-08
2.74379859e-08
3.29233442e-08
3.90488099e-08
4.56802716e-08
5.2600443e-08
5.95982392e-08
6.65931541e-08
7.36773e-08
8.10448527e-08
8.88966943e-08
9.73475784e-08
1.06399605e-07
1.15921224e-07
1.25724941e-07
1.35632937e-07
1.45592117e-07
1.55693954e-07
1.66132941e-07
1.77126877e-07
1.8883876e-07
2.01321441e-07
2.14498504e-07
2.28198892e-07
2.42230323e-07
2.56464665e-07
2.70871322e-07
2.85506713e-07
3.00468278e-07
3.15833247e-07
3.31621912e-07
3.47765129e-07
3.64129881e-07
3.80560405e-07
3.96939727e-07
4.13229915e-07
4.29474887e-07
4.45773104e-07
4.62235263e-07
4.78946318e-07
4.95937888e-07
5.13188572e-07
5.30638626e-07
5.48229868e-07
5.65936694e-07
5.83787455e-07
6.01859922e-07
6.20258372e-07
6.39093443e-07
6.58455584e-07
6.78418068e-07
6.99021566e-07
7.20306642e-07
7.42293596e-07
7.64989151e-07
7.88384632e-07
8.124541e-07
8.3715057e-07
8.62426586e-07
8.88248956e-07
9.14623121e-07
9.41602368e-07
9.69287938e-07
9.97815227e-07
1.02734011e-06
1.05799353e-06
1.08987411e-06
1.12303804e-06
1.15749985e-06
1.19323611e-06
1.23020466e-06
1.26837296e-06
1.30772955e-06
1.34831315e-06
1.39019317e-06
1.43347652e-06
1.47829395e-06
1.52477991e-06
1.57306082e-06
1.62324395e-06
1.6754148e-06
1.72964352e-06
1.78599137e-06
1.84451843e-06
1.90530036e-06
1.96844915e-06
2.03410637e-06
2.10247058e-06
2.17378577e-06
2.2483471e-06
2.32650603e-06
2.40866834e-06
2.49529131e-06
2.58689122e-06
2.68407823e-06
2.78756693e-06
2.89819501e-06
3.01695871e-06
3.14503314e-06
3.28384065e-06
3.43510952e-06
3.60095674e-06
3.78398574e-06
3.9873797e-06
4.21508765e-06
4.4719404e-06
4.76376055e-06
5.09730239e-06
5.48013252e-06
5.91959442e-06
6.42086721e-06
6.98346985e-06
7.59827985e-06
8.24430299e-06
8.88953395e-06
9.49432671e-06
1.00190809e-05
1.0429922e-05
1.07016674e-05
1.08185213e-05
1.07721413e-05
1.05601373e-05
1.01864308e-05
9.6552503e-06
8.97893983e-06
8.16249726e-06
7.2213161e-06
6.18046325e-06
5.08227095e-06
3.99848734e-06
3.0219448e-06
2.22421277e-06
1.61469245e-06
1.16470227e-06
8.3819474e-07
6.03307132e-07
4.34997661e-07
3.14418716e-07
2.27819376e-07
1.65496903e-07
1.20504297e-07
8.79846503e-08
6.44132488e-08
4.72803224e-08
3.47944729e-08
2.56715192e-08
1.89893273e-08
1.40829673e-08
1.04716047e-08
7.80675851e-09
5.83537588e-09
4.37329987e-09
3.28620631e-09
2.47588568e-09
1.87036527e-09
1.41678204e-09
1.07620127e-09
8.19871934e-10
6.26510212e-10
4.80322257e-10
3.69563086e-10
2.85491466e-10
2.21507431e-10
1.72730062e-10
1.35486853e-10
1.07010095e-10
8.52123119e-11
6.8516107e-11
5.57269191e-11
4.59379379e-11
3.84589316e-11
3.27631045e-11
2.84473696e-11
2.52023159e-11
2.27894592e-11
2.10242737e-11
1.97634968e-11
1.88956784e-11
1.83334828e-11
1.80084275e-11
1.78666085e-11
1.7865023e-11
1.79695547e-11
1.81527613e-11
1.83936576e-11
1.86751566e-11
1.89830748e-11
1.93065416e-11
1.963564e-11
1.99647711e-11
2.02909989e-11
2.061129e-11
2.09225527e-11
2.12215821e-11
2.1508951e-11
2.17836672e-11
2.20467861e-11
2.22987372e-11
2.25382373e-11
2.27661922e-11
2.29839394e-11
2.31928461e-11
2.33933888e-11
2.35863357e-11
2.37726448e-11
2.39542083e-11
2.41317928e-11
2.430442e-11
2.44719884e-11
2.4634423e-11
2.4791479e-11
2.4942879e-11
2.50882562e-11
2.52274691e-11
2.53606883e-11
2.54880544e-11
2.56092365e-11
2.57233017e-11
2.58288262e-11
2.59241122e-11
2.60074273e-11
2.60773423e-11
2.61329675e-11
2.61739224e-11
2.62000034e-11
2.62107157e-11
2.62131082e-11
2.62047783e-11
2.61873084e-11
2.61625144e-11
2.61319842e-11
2.60970518e-11
2.6058854e-11
2.60183382e-11
2.59762377e-11
2.59330204e-11
2.58888202e-11
2.5843358e-11
2.57958629e-11
2.57450263e-11
2.56890401e-11
2.56257868e-11
2.55532233e-11
2.5469957e-11
2.53769999e-11
2.52747894e-11
2.51652786e-11
2.50512051e-11
2.4935504e-11
2.48208998e-11
2.47096445e-11
2.46034085e-11
2.45033157e-11
2.4410109e-11
2.43244927e-11
2.42477991e-11
2.41834354e-11
2.4140217e-11
2.61437655e-10
2.09400906e-10
1.89682461e-10
2.02105905e-10
4.79953154e-10
7.42556468e-09
2.20738723e-08
3.82630651e-08
5.22868207e-08
6.29020574e-08
7.02540105e-08
7.65110031e-08
8.44404533e-08
9.50519345e-08
1.07629238e-07
1.20734765e-07
1.33004088e-07
1.43525898e-07
1.52173516e-07
1.59998148e-07
1.68452441e-07
1.78521129e-07
1.90412668e-07
2.03656345e-07
2.17431073e-07
2.30833503e-07
2.43233661e-07
2.54610645e-07
2.65611221e-07
2.77160008e-07
2.90032607e-07
3.04586016e-07
3.20697741e-07
3.37855607e-07
3.5534659e-07
3.72522969e-07
3.89070978e-07
4.05105967e-07
4.21020477e-07
4.37249089e-07
4.54073683e-07
4.71526199e-07
4.89405344e-07
5.07338135e-07
5.2493334e-07
5.41933025e-07
5.58314854e-07
5.74276684e-07
5.90129563e-07
6.06167183e-07
6.22571109e-07
6.39374349e-07
6.56471829e-07
6.73682525e-07
6.90825393e-07
7.07813854e-07
7.24687861e-07
7.41602622e-07
7.58766804e-07
7.76372958e-07
7.94559566e-07
8.13391832e-07
8.32892037e-07
8.53041502e-07
8.73829012e-07
8.95229223e-07
9.17202761e-07
9.39686001e-07
9.62599982e-07
9.85851636e-07
1.00938043e-06
1.03317872e-06
1.05732355e-06
1.08197023e-06
1.10732953e-06
1.13362897e-06
1.16108131e-06
1.18982565e-06
1.21993296e-06
1.25140911e-06
1.28420517e-06
1.31824298e-06
1.35344862e-06
1.38978754e-06
1.42727863e-06
1.46601278e-06
1.50612056e-06
1.54776779e-06
1.5911293e-06
1.63636313e-06
1.68359867e-06
1.73292919e-06
1.78441764e-06
1.83810732e-06
1.89403709e-06
1.95225448e-06
2.01283053e-06
2.07588825e-06
2.1415873e-06
2.21015024e-06
2.28185641e-06
2.35703761e-06
2.43608206e-06
2.51943002e-06
2.6075675e-06
2.70103909e-06
2.80049148e-06
2.90668392e-06
3.02050156e-06
3.14298825e-06
3.27536233e-06
3.41910542e-06
3.57600467e-06
3.74823607e-06
3.9384479e-06
4.14981176e-06
4.38622299e-06
4.65231129e-06
4.95346669e-06
5.29559164e-06
5.68494434e-06
6.12675661e-06
6.62333072e-06
7.17066483e-06
7.75706886e-06
8.36034633e-06
8.94980081e-06
9.48864199e-06
9.94165534e-06
1.02793075e-05
1.04799404e-05
1.05304719e-05
1.04239485e-05
1.01589059e-05
9.74136025e-06
9.17540455e-06
8.47135127e-06
7.63896008e-06
6.69850278e-06
5.68068147e-06
4.63400387e-06
3.63144115e-06
2.75098949e-06
2.03868e-06
1.49191482e-06
1.08441678e-06
7.85780239e-07
5.68959664e-07
4.12310645e-07
2.99298953e-07
2.1767936e-07
1.58651886e-07
1.15846129e-07
8.47986691e-08
6.22200332e-08
4.57600639e-08
3.37342072e-08
2.49283014e-08
1.84660798e-08
1.37131775e-08
1.02093361e-08
7.62009773e-09
5.70205668e-09
4.27773805e-09
3.21746146e-09
2.42625569e-09
1.83440827e-09
1.3906398e-09
1.05713116e-09
8.05917315e-10
6.16270158e-10
4.72789885e-10
3.64012139e-10
2.81402373e-10
2.18482616e-10
1.70499556e-10
1.33846425e-10
1.05809258e-10
8.43399508e-11
6.78898103e-11
5.52852591e-11
4.5634939e-11
3.82600522e-11
3.26422106e-11
2.8384508e-11
2.51822194e-11
2.28005008e-11
2.10575562e-11
1.9812073e-11
1.89540995e-11
1.83976218e-11
1.80752357e-11
1.79337161e-11
1.79306039e-11
1.80323873e-11
1.821205e-11
1.84487668e-11
1.87258451e-11
1.9029338e-11
1.93486694e-11
1.96735281e-11
1.99982458e-11
2.03204999e-11
2.06373621e-11
2.09455639e-11
2.1241551e-11
2.15259398e-11
2.17980161e-11
2.20590213e-11
2.23091687e-11
2.25467696e-11
2.27728911e-11
2.29890464e-11
2.31965806e-11
2.33957882e-11
2.3587298e-11
2.37722056e-11
2.39524282e-11
2.41287404e-11
2.4300182e-11
2.4466516e-11
2.46277614e-11
2.47837648e-11
2.49341519e-11
2.50785186e-11
2.52167546e-11
2.53490487e-11
2.54755184e-11
2.55957943e-11
2.57089448e-11
2.58135826e-11
2.59080546e-11
2.59906817e-11
2.60600806e-11
2.61153874e-11
2.61562261e-11
2.61823766e-11
2.61926966e-11
2.61958916e-11
2.61878528e-11
2.61707052e-11
2.61462665e-11
2.61160876e-11
2.60814642e-11
2.60435091e-11
2.60031575e-11
2.59611376e-11
2.5917917e-11
2.58736339e-11
2.58280183e-11
2.57803156e-11
2.57292416e-11
2.56730225e-11
2.56095858e-11
2.55369532e-11
2.54538545e-11
2.53610482e-11
2.5259172e-11
2.51501437e-11
2.50366431e-11
2.49215529e-11
2.48075541e-11
2.46968659e-11
2.45911377e-11
2.44914817e-11
2.43986366e-11
2.4313309e-11
2.42368367e-11
2.41726332e-11
2.4129511e-11
4.85751054e-12
7.07075081e-12
8.07118156e-12
8.5174471e-12
8.67132088e-12
8.64784935e-12
8.50895083e-12
8.29850213e-12
8.04336516e-12
7.77006998e-12
7.49720457e-12
7.23444929e-12
6.98656553e-12
6.75672054e-12
6.54645349e-12
6.35574015e-12
6.18337148e-12
6.02787532e-12
5.88806238e-12
5.76269548e-12
5.65023464e-12
5.54926342e-12
5.45871065e-12
5.37759571e-12
5.30483287e-12
5.23946579e-12
5.18076319e-12
5.12803994e-12
5.08072161e-12
5.03825806e-12
5.00014103e-12
4.9659252e-12
4.93535376e-12
4.90818476e-12
4.88429745e-12
4.86390534e-12
4.8516369e-12
5.02092033e-12
1.16549554e-11
1.86610981e-10
3.19484752e-12
5.38508649e-12
6.73713157e-12
7.58018919e-12
8.09906437e-12
8.4004251e-12
8.53851284e-12
8.55066779e-12
8.46563588e-12
8.31409998e-12
8.1215743e-12
7.90498266e-12
7.67638215e-12
7.44579672e-12
7.22031753e-12
7.00420757e-12
6.79994537e-12
6.60888156e-12
6.43158375e-12
6.26811083e-12
6.11811655e-12
5.98086873e-12
5.85559202e-12
5.74156357e-12
5.63797819e-12
5.5438977e-12
5.45854095e-12
5.38118022e-12
5.31113408e-12
5.24779004e-12
5.19056788e-12
5.13886756e-12
5.09231039e-12
5.05057875e-12
5.01345414e-12
4.98095599e-12
4.95432824e-12
4.96396052e-12
5.97809476e-12
2.95776291e-11
2.16576265e-12
4.01751045e-12
5.38608859e-12
6.37024146e-12
7.06874269e-12
7.5593803e-12
7.8937796e-12
8.10263578e-12
8.20782959e-12
8.23015473e-12
8.18810012e-12
8.09633751e-12
7.96725316e-12
7.81234347e-12
7.64102089e-12
7.46032731e-12
7.27576027e-12
7.09191528e-12
6.91200631e-12
6.73815382e-12
6.57203392e-12
6.41484242e-12
6.26704463e-12
6.12878544e-12
6.00016052e-12
5.88104727e-12
5.77113594e-12
5.6699605e-12
5.5769797e-12
5.49171318e-12
5.41377678e-12
5.3426915e-12
5.2779836e-12
5.21923318e-12
5.16612429e-12
5.1183635e-12
5.07601138e-12
5.04232177e-12
5.12155449e-12
7.45643631e-12
1.901791e-12
3.51951989e-12
4.80827714e-12
5.7954765e-12
6.5335334e-12
7.07447489e-12
7.46205479e-12
7.72888345e-12
7.89897192e-12
7.99065695e-12
8.01876124e-12
7.99531271e-12
7.93021517e-12
7.83237218e-12
7.70973073e-12
7.56900562e-12
7.4158576e-12
7.25527375e-12
7.09134538e-12
6.92727671e-12
6.76567799e-12
6.60863851e-12
6.45760811e-12
6.31359673e-12
6.17727892e-12
6.04912301e-12