/*--------------------------------*- C++ -*----------------------------------*\
  =========                 |
  \\      /  F ield         | OpenFOAM: The Open Source CFD Toolbox
   \\    /   O peration     | Website:  https://openfoam.org
    \\  /    A nd           | Version:  6
     \\/     M anipulation  |
\*---------------------------------------------------------------------------*/
FoamFile
{
    version     2.0;
    format      ascii;
    class       volScalarField;
    location    "25000";
    object      NNH;
}
// * * * * * * * * * * * * * * * * * * * * * * * * * * * * * * * * * * * * * //

dimensions      [0 0 0 0 0 0 0];

internalField   nonuniform List<scalar> 
44870
(
4.31607312e-61
6.80027439e-61
1.04061537e-60
1.74917646e-60
2.11334243e-60
2.63073163e-60
1.91705877e-60
2.60492383e-60
2.32966775e-60
2.14562668e-60
2.41227139e-60
2.18658891e-60
1.93499727e-60
1.61502928e-60
1.80430342e-60
2.30089221e-60
2.55198242e-60
2.40599386e-60
2.28908332e-60
1.62050015e-60
2.08359234e-60
2.77192501e-60
2.02677133e-60
1.80994114e-60
5.01368593e-60
9.93412999e-58
2.8888248e-55
8.62710588e-53
2.64037265e-50
8.26710199e-48
2.64501148e-45
8.62273747e-43
2.85687734e-40
9.56955975e-38
3.22200068e-35
1.07864677e-32
3.53746505e-30
1.1060001e-27
3.12888762e-25
7.29260744e-23
1.14767631e-60
1.22892132e-60
1.43512037e-60
2.16838815e-60
2.15665495e-60
2.16057108e-60
1.9177109e-60
2.11684448e-60
1.9415041e-60
1.93183866e-60
2.69710834e-60
2.4513336e-60
1.70910069e-60
1.37730307e-60
1.98290662e-60
1.58329935e-60
2.00673633e-60
1.76347436e-60
1.92256289e-60
1.72829932e-60
1.51724489e-60
2.76854888e-60
1.97358338e-60
2.3427894e-60
2.68497855e-60
2.62952187e-58
9.24757905e-56
3.42804066e-53
1.32682976e-50
5.34535719e-48
2.2368226e-45
9.68767984e-43
4.33046667e-40
1.98695076e-37
9.30646407e-35
4.40295575e-32
2.07574393e-29
9.53077088e-27
4.06289113e-24
1.51623604e-21
1.24423683e-60
1.73878659e-60
1.72660623e-60
2.28223438e-60
2.45312602e-60
1.94515309e-60
1.8243695e-60
2.18327055e-60
2.09059522e-60
1.91958069e-60
2.25601082e-60
3.11627767e-60
2.79222869e-60
1.83476149e-60
1.58351714e-60
2.44732385e-60
3.62569589e-60
2.11045398e-60
1.61458069e-60
2.20228743e-60
2.30711156e-60
2.90309145e-60
3.59931095e-60
2.17685794e-60
1.7748385e-60
6.96765564e-60
2.6169699e-57
1.44687757e-54
9.46342383e-52
7.00114732e-49
5.54729394e-46
4.57879149e-43
3.82375428e-40
3.20734305e-37
2.6474955e-34
2.14931516e-31
1.67610065e-28
1.25548531e-25
8.55945365e-23
5.28686054e-20
1.92071633e-61
4.91287108e-61
7.23837677e-61
1.19273933e-60
2.29659345e-60
2.29530271e-60
3.11510052e-60
1.61019927e-60
5.99051897e-60
4.43998451e-60
2.84834275e-60
1.93343577e-60
1.43918167e-60
6.81914164e-60
8.48408061e-60
2.90473877e-60
1.20813354e-60
1.2602912e-60
9.98245752e-61
7.3038273e-61
2.26656155e-60
2.4826284e-60
2.57152932e-60
2.11709635e-60
1.38702255e-60
1.38184588e-59
3.20816153e-57
3.49344837e-54
3.83308733e-51
4.21935109e-48
4.60440674e-45
4.97916936e-42
5.26460934e-39
5.44733158e-36
5.43834837e-33
5.24507505e-30
4.80868321e-27
4.18512212e-24
3.34457773e-21
2.40630601e-18
5.46015518e-60
1.04908542e-59
4.46009422e-60
2.47017865e-60
4.41684656e-60
5.79683446e-60
2.73277657e-60
9.96128589e-61
4.42643558e-61
2.77899098e-60
7.68946032e-61
1.15391741e-60
4.36013072e-61
8.92123763e-60
3.00028574e-60
7.69503834e-61
2.71032897e-61
1.30378632e-61
8.71904235e-62
1.23727561e-60
2.96096296e-61
6.56257982e-60
1.56971018e-60
3.30116574e-61
1.75709459e-61
9.54988188e-59
9.45863737e-56
9.3887959e-53
9.31790732e-50
9.24325426e-47
9.17011477e-44
9.09463519e-41
9.02178758e-38
8.94779212e-35
8.87711913e-32
8.806775e-29
8.73951817e-26
8.67415838e-23
8.61065882e-20
8.60338934e-17
5.9975382e-21
1.32454162e-20
1.87511709e-20
2.28488157e-20
2.72574989e-20
3.41431513e-20
4.38195863e-20
5.47515232e-20
6.46336022e-20
7.22605841e-20
7.75280491e-20
8.17682824e-20
8.59251839e-20
9.06142991e-20
9.55482032e-20
1.00299055e-19
1.04965153e-19
1.10133692e-19
1.17760472e-19
1.29287444e-19
1.45878375e-19
1.67317569e-19
1.92995641e-19
2.22888124e-19
2.58620311e-19
3.04608469e-19
3.67128444e-19
4.57478797e-19
5.82120789e-19
7.52858395e-19
9.74589224e-19
1.25657823e-18
1.61627252e-18
2.0758501e-18
2.69122443e-18
3.52367554e-18
4.68269673e-18
6.26623532e-18
8.4092641e-18
1.12257959e-17
1.48801799e-17
1.9580172e-17
2.56534324e-17
3.35805963e-17
4.41369767e-17
5.82731334e-17
7.72065085e-17
1.0234765e-16
1.35268727e-16
1.77776863e-16
2.3208618e-16
3.01236172e-16
3.89512545e-16
5.03117028e-16
6.50483522e-16
8.4266136e-16
1.09296482e-15
1.41679189e-15
1.83115255e-15
2.35500529e-15
3.01014681e-15
3.82262494e-15
4.82504465e-15
6.05743662e-15
7.5711313e-15
9.427613e-15
1.17080612e-14
1.45129367e-14
1.79770606e-14
2.22660028e-14
2.75874517e-14
3.41825968e-14
4.23106282e-14
5.22695509e-14
6.43165563e-14
7.88169029e-14
9.60333628e-14
1.16400793e-13
1.40404716e-13
1.68683083e-13
2.01998062e-13
2.41248054e-13
2.87491195e-13
3.4186365e-13
4.05590881e-13
4.79897303e-13
5.66231326e-13
6.6601866e-13
7.81013147e-13
9.13392883e-13
1.06577649e-12
1.24151736e-12
1.444503e-12
1.67933024e-12
1.95130057e-12
2.26645098e-12
2.63157166e-12
3.0544109e-12
3.54385895e-12
4.11050322e-12
4.76679476e-12
5.52729154e-12
6.4091776e-12
7.4333472e-12
8.62418573e-12
1.00121552e-11
1.16346493e-11
1.35361667e-11
1.57746848e-11
1.84216075e-11
2.15693613e-11
2.53357594e-11
2.98722892e-11
3.53796427e-11
4.2123078e-11
5.04550882e-11
6.08476706e-11
7.39350464e-11
9.05669991e-11
1.11866665e-10
1.39274757e-10
1.74528617e-10
2.19483088e-10
2.75679008e-10
3.43695607e-10
4.22611459e-10
5.09982816e-10
6.02443296e-10
6.9667708e-10
7.90315253e-10
8.82364386e-10
9.73205123e-10
1.0646462e-09
1.15970247e-09
1.26228067e-09
1.37755176e-09
1.51175727e-09
1.67310696e-09
1.87263756e-09
2.12318944e-09
2.45950895e-09
2.91400452e-09
3.51671818e-09
4.26809665e-09
5.09554676e-09
5.8801216e-09
6.53459434e-09
7.02161513e-09
7.33480773e-09
7.48314693e-09
7.48460328e-09
7.36113773e-09
7.13582044e-09
6.82987194e-09
6.46296062e-09
6.05300225e-09
5.61593068e-09
5.16562609e-09
4.71378724e-09
4.26992703e-09
3.8415335e-09
3.4342503e-09
3.05208083e-09
2.69760485e-09
2.3721974e-09
2.07624193e-09
1.80933118e-09
1.57045003e-09
1.3581389e-09
1.17063524e-09
1.00599242e-09
8.62176527e-10
7.37141935e-10
6.2889505e-10
5.35557718e-10
4.55375895e-10
3.86688983e-10
3.28003814e-10
2.77982683e-10
2.35434233e-10
1.99306063e-10
1.6867483e-10
1.42735616e-10
1.20791634e-10
1.02242753e-10
8.65725043e-11
7.3337385e-11
6.21599208e-11
5.27218346e-11
4.47528614e-11
3.80167025e-11
3.23268192e-11
2.75103609e-11
2.34388902e-11
1.99944142e-11
1.70719887e-11
1.45857536e-11
1.24733397e-11
1.06830335e-11
9.16023068e-12
7.86137096e-12
6.74831769e-12
5.79990538e-12
4.99185599e-12
4.30044284e-12
3.70813869e-12
3.19795221e-12
2.76394247e-12
2.39270478e-12
2.07272793e-12
1.79601295e-12
1.55658612e-12
1.35107659e-12
1.17359107e-12
1.01998018e-12
8.86394557e-13
7.70595727e-13
6.70236288e-13
5.8311845e-13
5.08403416e-13
4.43237957e-13
3.86749263e-13
3.37923246e-13
2.95553734e-13
2.58740411e-13
2.26733818e-13
1.98895654e-13
1.74632074e-13
1.53408742e-13
1.34806558e-13
1.18496449e-13
1.04202258e-13
9.1685383e-14
8.07356723e-14
7.11632286e-14
6.27936574e-14
5.54616852e-14
4.9009151e-14
4.33866083e-14
3.84676334e-14
3.4148167e-14
3.03457578e-14
2.69912964e-14
2.40258635e-14
2.13989941e-14
1.90674191e-14
1.69940402e-14
1.5147128e-14
1.34996593e-14
1.2028788e-14
1.07153931e-14
9.54362159e-15
8.5003203e-15
7.57425234e-15
6.7547782e-15
6.02775624e-15
5.40003584e-15
4.84997205e-15
4.36829983e-15
3.9462169e-15
3.57539246e-15
3.2483022e-15
2.95835122e-15
2.69991891e-15
2.46839929e-15
2.26031743e-15
2.07370735e-15
1.90913097e-15
1.7723445e-15
1.68094256e-15
1.73276108e-19
2.84694307e-19
3.1674367e-19
3.35947427e-19
3.98935971e-19
5.45365919e-19
7.36050654e-19
9.06182273e-19
1.0114865e-18
1.05836127e-18
1.07976682e-18
1.12142533e-18
1.19377469e-18
1.28700659e-18
1.37802519e-18
1.45516202e-18
1.53049697e-18
1.63423192e-18
1.81900254e-18
2.10447098e-18
2.48375784e-18
2.92170008e-18
3.38986023e-18
3.90447971e-18
4.51490917e-18
5.35726491e-18
6.5720532e-18
8.32845732e-18
1.06753459e-17
1.36430871e-17
1.71865913e-17
2.1360517e-17
2.63472173e-17
3.254705e-17
4.06363846e-17
5.14116769e-17
6.57536392e-17
8.41794141e-17
1.07081171e-16
1.34499723e-16
1.66940976e-16
2.05278995e-16
2.51574152e-16
3.08729232e-16
3.81132194e-16
4.73146902e-16
5.8897037e-16
7.31872192e-16
9.04316488e-16
1.10901941e-15
1.35049757e-15
1.63692299e-15
1.98126586e-15
2.40192977e-15
2.9215614e-15
3.56520471e-15
4.35720676e-15
5.32012523e-15
6.47501264e-15
7.8452445e-15
9.46072146e-15
1.13627265e-14
1.36058389e-14
1.62588488e-14
1.9405529e-14
2.31416293e-14
2.75925762e-14
3.29103959e-14
3.9295061e-14
4.69831916e-14
5.62559329e-14
6.74140132e-14
8.0750845e-14
9.65790904e-14
1.15136985e-13
1.36802357e-13
1.61835196e-13
1.90756808e-13
2.24176244e-13
2.62924798e-13
3.0795749e-13
3.60388664e-13
4.21474108e-13
4.9248229e-13
5.7471503e-13
6.69449245e-13
7.78190118e-13
9.02459933e-13
1.04418606e-12
1.20590617e-12
1.390632e-12
1.60217934e-12
1.8450419e-12
2.12441952e-12
2.44622118e-12
2.81707085e-12
3.24433274e-12
3.73636522e-12
4.30275787e-12
4.9550234e-12
5.70657662e-12
6.57312913e-12
7.57331598e-12
8.72981039e-12
1.00689639e-11
1.16239397e-11
1.34350323e-11
1.55502867e-11
1.80322805e-11
2.09578596e-11
2.44255263e-11
2.85607452e-11
3.35253598e-11
3.95317793e-11
4.68593737e-11
5.58776304e-11
6.70784519e-11
8.11182665e-11
9.88692056e-11
1.21471578e-10
1.50369216e-10
1.87273871e-10
2.33968708e-10
2.91869593e-10
3.61407026e-10
4.41547466e-10
5.29835071e-10
6.22979051e-10
7.17816268e-10
8.12145791e-10
9.05132005e-10
9.972676e-10
1.09049705e-09
1.18795327e-09
1.29359854e-09
1.41275508e-09
1.55171106e-09
1.71882022e-09
1.92531999e-09
2.18637778e-09
2.53479178e-09
3.00185856e-09
3.61473657e-09
4.36819818e-09
5.18530293e-09
5.95147902e-09
6.58564624e-09
7.05385233e-09
7.35097555e-09
7.48628126e-09
7.47761424e-09
7.34663164e-09
7.11613081e-09
6.80681029e-09
6.43797262e-09
6.0272423e-09
5.59030352e-09
5.14082278e-09
4.690304e-09
4.2480937e-09
3.82154437e-09
3.41619146e-09
3.03595499e-09
2.68335291e-09
2.35971692e-09
2.06540228e-09
1.79998585e-09
1.56244622e-09
1.3513246e-09
1.16486439e-09
1.00112831e-09
8.58093834e-10
7.33727636e-10
6.26048083e-10
5.33190766e-10
4.53414534e-10
3.85065753e-10
3.2666238e-10
2.76875519e-10
2.34521322e-10
1.98553895e-10
1.68055378e-10
1.4222542e-10
1.20371248e-10
1.01896345e-10
8.62871155e-11
7.31019972e-11
6.19651922e-11
5.25605112e-11
4.4619655e-11
3.79057748e-11
3.22353328e-11
2.74336466e-11
2.33748639e-11
1.99418071e-11
1.70286104e-11
1.45490931e-11
1.24417629e-11
1.06567478e-11
9.13890638e-12
7.84380694e-12
6.73308121e-12
5.78646552e-12
4.98076801e-12
4.29159796e-12
3.70075516e-12
3.19124964e-12
2.75802255e-12
2.38788303e-12
2.06883058e-12
1.79264964e-12
1.55351026e-12
1.34840213e-12
1.1714222e-12
1.01821526e-12
8.84862226e-13
7.6921966e-13
6.69065225e-13
5.82098195e-13
5.07593527e-13
4.42526577e-13
3.86120538e-13
3.37385835e-13
2.95101025e-13
2.58351074e-13
2.26391404e-13
1.98593248e-13
1.74365712e-13
1.5317264e-13
1.34594889e-13
1.18305926e-13
1.04031325e-13
9.15326615e-14
8.05996091e-14
7.10423976e-14
6.26868356e-14
5.53678485e-14
4.89250632e-14
4.33139735e-14
3.84043622e-14
3.40928383e-14
3.02972793e-14
2.69487636e-14
2.39884963e-14
2.13661175e-14
1.90384513e-14
1.69684817e-14
1.51245529e-14
1.3479707e-14
1.20111547e-14
1.06998215e-14
9.52989185e-15
8.48824013e-15
7.56365143e-15
6.74550832e-15
6.01927031e-15
5.39310791e-15
4.84383899e-15
4.36290573e-15
3.94147816e-15
3.57122028e-15
3.24461513e-15
2.95507784e-15
2.69699761e-15
2.46577787e-15
2.25795293e-15
2.07156387e-15
1.90717654e-15
1.77054474e-15
1.67924066e-15
9.96411524e-18
1.1687695e-17
1.03393282e-17
1.08229123e-17
1.52417401e-17
2.41409072e-17
3.23688178e-17
3.63787972e-17
3.6191431e-17
3.42970824e-17
3.34358402e-17
3.51279684e-17
3.822546e-17
4.10008427e-17
4.24438421e-17
4.2824657e-17
4.33931652e-17
4.59278777e-17
5.19194864e-17
6.07054776e-17
7.0310853e-17
7.90122828e-17
8.64825242e-17
9.41246201e-17
1.04568952e-16
1.21337788e-16
1.47199895e-16
1.82837088e-16
2.25712734e-16
2.72671613e-16
3.21603936e-16
3.73755511e-16
4.33669313e-16
5.09117247e-16
6.09327948e-16
7.421143e-16
9.10299151e-16
1.10949512e-15
1.33273371e-15
1.5739272e-15
1.83591109e-15
2.12908513e-15
2.4750024e-15
2.89835046e-15
3.4275457e-15
4.07916413e-15
4.85597142e-15
5.74728821e-15
6.73930258e-15
7.82911615e-15
9.03540108e-15
1.04031027e-14
1.19994733e-14
1.39039563e-14
1.61908695e-14
1.89126961e-14
2.20904909e-14
2.57227274e-14
2.98055308e-14
3.4360327e-14
3.94495007e-14
4.51830631e-14
5.17015401e-14
5.91712711e-14
6.77607932e-14
7.76522471e-14
8.90921794e-14
1.02372377e-13
1.17868831e-13
1.35994022e-13
1.57179333e-13
1.81800173e-13
2.1013096e-13
2.42413402e-13
2.78766364e-13
3.19582812e-13
3.65187137e-13
4.1641957e-13
4.74321362e-13
5.40285249e-13
6.15805724e-13
7.02505376e-13
8.02013037e-13
9.15789492e-13
1.04517475e-12
1.19147602e-12
1.35624131e-12
1.54132413e-12
1.74913822e-12
1.98299693e-12
2.2470479e-12
2.54637415e-12
2.88684067e-12
3.27504257e-12
3.71825736e-12
4.22439034e-12
4.80205139e-12
5.46094399e-12
6.21226929e-12
7.06968486e-12
8.04878275e-12
9.16799825e-12
1.04493943e-11
1.19197914e-11
1.36101708e-11
1.55598754e-11
1.78159148e-11
2.04347851e-11
2.34892693e-11
2.70687444e-11
3.12854167e-11
3.62831326e-11
4.22458932e-11
4.94123663e-11
5.80934522e-11
6.86955968e-11
8.17533436e-11
9.79694177e-11
1.18260257e-10
1.43795511e-10
1.76013851e-10
2.16556372e-10
2.67036914e-10
3.28595974e-10
4.01359641e-10
4.84085882e-10
5.74332659e-10
6.68988567e-10
7.65218937e-10
8.61191488e-10
9.56398676e-10
1.05155921e-09
1.14892812e-09
1.25189572e-09
1.36451578e-09
1.49247307e-09
1.64210282e-09
1.82207627e-09
2.04388599e-09
2.32902695e-09
2.70388818e-09
3.19726328e-09
3.82999171e-09
4.58413981e-09
5.37599773e-09
6.10120101e-09
6.69158745e-09
7.1195952e-09
7.38246327e-09
7.49014738e-09
7.46003979e-09
7.31319171e-09
7.07184861e-09
6.75551954e-09
6.38274334e-09
5.97053363e-09
5.53403759e-09
5.086473e-09
4.63891969e-09
4.2003694e-09
3.77788487e-09
3.3767704e-09
3.0007679e-09
2.65226356e-09
2.33249683e-09
2.04176329e-09
1.77960643e-09
1.54499195e-09
1.33646346e-09
1.15227769e-09
9.90517953e-10
8.49186742e-10
7.26277575e-10
6.1983478e-10
5.28023924e-10
4.49132794e-10
3.81521135e-10
3.23732505e-10
2.74456889e-10
2.32526678e-10
1.96910054e-10
1.6670122e-10
1.41110032e-10
1.19452329e-10
1.01138973e-10
8.56626128e-11
7.25867262e-11
6.15395511e-11
5.2208375e-11
4.43282064e-11
3.76664519e-11
3.2034748e-11
2.72669239e-11
2.32357928e-11
1.98260252e-11
1.69322297e-11
1.44688593e-11
1.23742592e-11
1.05999567e-11
9.091265e-12
7.8041702e-12
6.70002903e-12
5.75828633e-12
4.95681974e-12
4.27148055e-12
3.68394354e-12
3.17693544e-12
2.74574891e-12
2.37739625e-12
2.05987891e-12
1.78507153e-12
1.54700571e-12
1.34280679e-12
1.16664807e-12
1.01416673e-12
8.81437896e-13
7.66293424e-13
6.66539509e-13
5.80123177e-13
5.05744895e-13
4.40948652e-13
3.84762348e-13
3.36213175e-13
2.94091172e-13
2.57479056e-13
2.2563367e-13
1.97928566e-13
1.73777527e-13
1.52649196e-13
1.34126844e-13
1.17886356e-13
1.03655393e-13
9.1196687e-14
8.03003572e-14
7.07768859e-14
6.24522771e-14
5.51617295e-14
4.8740653e-14
4.31546318e-14
3.82655539e-14
3.39714384e-14
3.01909051e-14
2.68554362e-14
2.39065078e-14
2.12939874e-14
1.89749009e-14
1.6912414e-14
1.50750328e-14
1.34359421e-14
1.19724758e-14
1.06656626e-14
9.49976854e-15
8.46172985e-15
7.54038082e-15
6.72516059e-15
6.0028719e-15
5.37796769e-15
4.83036313e-15
4.35105696e-15
3.93107096e-15
3.56205901e-15
3.23652024e-15
2.94789179e-15
2.69058531e-15
2.46002536e-15
2.25276539e-15
2.06686186e-15
1.90288953e-15
1.7665974e-15
1.67551422e-15
8.32081625e-16
6.59132618e-16
5.27529387e-16
6.44297795e-16
1.05385746e-15
1.67643056e-15
1.9561985e-15
1.83264003e-15
1.53111152e-15
1.27834879e-15
1.19653024e-15
1.26125688e-15
1.32403761e-15
1.30659209e-15
1.21876001e-15
1.11751176e-15
1.06477827e-15
1.11140824e-15
1.26391271e-15
1.43980461e-15
1.56227003e-15
1.6124052e-15
1.62650047e-15
1.66588521e-15
1.79705272e-15
2.06892289e-15
2.49186249e-15
3.00712539e-15
3.52028089e-15
3.97265378e-15
4.36905532e-15
4.7738188e-15
5.28229241e-15
5.99692002e-15
6.99671658e-15
8.29744734e-15
9.81895401e-15
1.14182818e-14
1.29833767e-14
1.44897898e-14
1.60290478e-14
1.77572521e-14
1.98740356e-14
2.25390683e-14
2.58577228e-14
2.97784406e-14
3.41213162e-14
3.86649923e-14
4.32742506e-14
4.79822939e-14
5.29952215e-14
5.86384501e-14
6.52690062e-14
7.31787492e-14
8.24962945e-14
9.31393561e-14
1.04861836e-13
1.17394572e-13
1.30597914e-13
1.44557211e-13
1.59568527e-13
1.76058588e-13
1.94450156e-13
2.15120934e-13
2.38357047e-13
2.64476436e-13
2.93979337e-13
3.27469646e-13
3.65701456e-13
4.09372565e-13
4.59013309e-13
5.14818926e-13
5.7665217e-13
6.44325164e-13
7.1763062e-13
7.97130063e-13
8.83654454e-13
9.79065173e-13
1.08559828e-12
1.20585936e-12
1.34243794e-12
1.4976269e-12
1.67327539e-12
1.87074945e-12
2.09100607e-12
2.33516126e-12
2.60481927e-12
2.90242814e-12
3.23161177e-12
3.59743619e-12
4.0062571e-12
4.46556439e-12
4.98359316e-12
5.5692146e-12
6.23181373e-12
6.9811703e-12
7.82770947e-12
8.78319398e-12
9.86152204e-12
1.10798425e-11
1.24572776e-11
1.40170027e-11
1.5786963e-11
1.78009546e-11
2.00979662e-11
2.27270356e-11
2.57468051e-11
2.92281413e-11
3.3259915e-11
3.79515572e-11
4.34387276e-11
4.98934641e-11
5.75344604e-11
6.66414608e-11
7.75732621e-11
9.07906268e-11
1.06888858e-10
1.2663275e-10
1.50991286e-10
1.8115418e-10
2.18519708e-10
2.64585897e-10
3.20685414e-10
3.87548767e-10
4.64908413e-10
5.51304541e-10
6.44417754e-10
7.41426002e-10
8.39981273e-10
9.38794608e-10
1.03782361e-09
1.13806294e-09
1.24229012e-09
1.35427579e-09
1.47810805e-09
1.62013763e-09
1.7865728e-09
1.98656029e-09
2.23745047e-09
2.55739244e-09
2.96983495e-09
3.49932753e-09
4.15435613e-09
4.89921914e-09
5.64656495e-09
6.30946409e-09
6.83590155e-09
7.2059933e-09
7.41971432e-09
7.48811483e-09
7.42758667e-09
7.25838844e-09
7.00205729e-09
6.67613977e-09
6.29816444e-09
5.88427765e-09
5.44885133e-09
5.0044674e-09
4.56158012e-09
4.12866999e-09
3.71238153e-09
3.31768563e-09
2.94806761e-09
2.60572441e-09
2.29176348e-09
2.00639582e-09
1.74911824e-09
1.51887951e-09
1.31422847e-09
1.13344279e-09
9.74637256e-10
8.35852107e-10
7.15121263e-10
6.10527464e-10
5.20290071e-10
4.42715681e-10
3.76206225e-10
3.19337819e-10
2.70827835e-10
2.29532777e-10
1.94441774e-10
1.64667183e-10
1.39434271e-10
1.18071551e-10
1.00000477e-10
8.47231828e-11
7.18114333e-11
6.08996464e-11
5.16792064e-11
4.38893065e-11
3.73036377e-11
3.17331328e-11
2.70171168e-11
2.3027354e-11
1.96508758e-11
1.67858011e-11
1.43482457e-11
1.22741558e-11
1.05150785e-11
9.01839589e-12
7.74329336e-12
6.6505438e-12
5.71705969e-12
4.92106557e-12
4.2403787e-12
3.65796442e-12
3.15569527e-12
2.72794678e-12
2.36168929e-12
2.04597668e-12
1.7734299e-12
1.5374111e-12
1.33464133e-12
1.15943612e-12
1.0078794e-12
8.76198067e-13
7.61953836e-13
6.62973093e-13
5.77076633e-13
5.02921632e-13
4.385467e-13
3.82728797e-13
3.34449305e-13
2.92548127e-13
2.56140762e-13
2.24478714e-13
1.96920361e-13
1.72883228e-13
1.51850949e-13
1.33414036e-13
1.17249316e-13
1.0308555e-13
9.06876177e-14
7.9847193e-14
7.03752064e-14
6.2097692e-14
5.48501904e-14
4.84617761e-14
4.29141837e-14
3.80559751e-14
3.37880601e-14
3.00301851e-14
2.67144079e-14
2.37826037e-14
2.11849763e-14
1.88788538e-14
1.68276753e-14
1.50001912e-14
1.33698005e-14
1.19140222e-14
1.06140398e-14
9.45424273e-15
8.42166122e-15
7.50520443e-15
6.69445006e-15
5.97789261e-15
5.35491811e-15
4.8099587e-15
4.33312976e-15
3.91532609e-15
3.5481985e-15
3.22427191e-15
2.93701725e-15
2.68088096e-15
2.45131978e-15
2.24491503e-15
2.05974617e-15
1.89640169e-15
1.76062377e-15
1.6698796e-15
8.89938342e-14
3.7803202e-14
2.86836222e-14
4.13503397e-14
6.89200675e-14
9.94057915e-14
9.29556706e-14
6.85353259e-14
4.68208983e-14
3.5507311e-14
3.42039695e-14
3.68004603e-14
3.58242855e-14
3.12684487e-14
2.58131801e-14
2.17345656e-14
2.02442039e-14
2.17141013e-14
2.5034816e-14
2.70692963e-14
2.67916536e-14
2.51270255e-14
2.35604227e-14
2.33201851e-14
2.51500626e-14
2.91572423e-14
3.4711535e-14
4.008141e-14
4.38453451e-14
4.5919317e-14
4.72599841e-14
4.91522363e-14
5.27182176e-14
5.86995827e-14
6.72583006e-14
7.76502835e-14
8.82007736e-14
9.73017085e-14
1.04476571e-13
1.10460594e-13
1.16734049e-13
1.24793283e-13
1.35857256e-13
1.50406372e-13
1.68167305e-13
1.87689979e-13
2.07010129e-13
2.24717924e-13
2.40704144e-13
2.56122178e-13
2.72821658e-13
2.92696576e-13
3.1713457e-13
3.46613766e-13
3.80433812e-13
4.16909685e-13
4.5409518e-13
4.90717314e-13
5.26734679e-13
5.63256434e-13
6.01978353e-13
6.44515399e-13
6.91917411e-13
7.44599246e-13
8.028118e-13
8.66995075e-13
9.38237046e-13
1.0179774e-12
1.10776402e-12
1.20847577e-12
1.32005258e-12
1.44131151e-12
1.57042744e-12
1.70602073e-12
1.84758132e-12
1.99690563e-12
2.15706988e-12
2.33280319e-12
2.52912704e-12
2.75091831e-12
3.00212281e-12
3.28527475e-12
3.60139947e-12
3.95049463e-12
4.33200156e-12
4.74649028e-12
5.19587116e-12
5.6841599e-12
6.21783203e-12
6.80565664e-12
7.45813515e-12
8.18683245e-12
9.00360315e-12
9.92047587e-12
1.09494985e-11
1.21026959e-11
1.33926601e-11
1.48340144e-11
1.6444998e-11
1.82471323e-11
2.02656061e-11
2.25311345e-11
2.50807974e-11
2.7959121e-11
3.1217511e-11
3.49189163e-11
3.91403561e-11
4.39740303e-11
4.95328093e-11
5.59546824e-11
6.34083123e-11
7.21060198e-11
8.23143481e-11
9.43684854e-11
1.0868936e-10
1.25804211e-10
1.46378955e-10
1.71241679e-10
2.0139956e-10
2.38019579e-10
2.82388134e-10
3.35758396e-10
3.99067438e-10
4.72538154e-10
5.55522796e-10
6.46438095e-10
7.4330032e-10
8.43652469e-10
9.45785973e-10
1.04909556e-09
1.15411663e-09
1.26206257e-09
1.37656307e-09
1.5018582e-09
1.64181426e-09
1.80400086e-09
1.99388459e-09
2.22727949e-09
2.51789279e-09
2.88220967e-09
3.34073172e-09
3.90930982e-09
4.57773627e-09
5.29251219e-09
5.97257651e-09
6.55360235e-09
6.99956334e-09
7.29789777e-09
7.45142573e-09
7.4714866e-09
7.37404962e-09
7.17805038e-09
6.90433626e-09
6.56744483e-09
6.1838531e-09
5.76871412e-09
5.33546072e-09
4.89580396e-09
4.45943743e-09
4.03420889e-09
3.62624182e-09
3.24009241e-09
2.87892736e-09
2.54470971e-09
2.23838483e-09
1.96006106e-09
1.70918004e-09
1.4846726e-09
1.2850972e-09
1.10876086e-09
9.53820708e-10
8.1836704e-10
7.00487124e-10
5.98313036e-10
5.10138896e-10
4.34286422e-10
3.69221649e-10
3.13559838e-10
2.66054273e-10
2.25592851e-10
1.91191955e-10
1.61987767e-10
1.37225943e-10
1.16251444e-10
9.84990947e-11
8.34834252e-11
7.07878145e-11
6.0055115e-11
5.09811235e-11
4.3309578e-11
3.68220043e-11
3.13343606e-11
2.66879432e-11
2.27529809e-11
1.941896e-11
1.65910107e-11
1.41887412e-11
1.21431517e-11
1.04036866e-11
8.92147738e-12
7.66178037e-12
6.58529891e-12
5.66358464e-12
4.87426412e-12
4.19876512e-12
3.62303449e-12
3.12785998e-12
2.70497925e-12
2.34108916e-12
2.02735541e-12
1.75786625e-12
1.52490251e-12
1.32407833e-12
1.14992767e-12
9.99444446e-13
8.69209516e-13
7.56274457e-13
6.58201384e-13
5.72845852e-13
4.99130708e-13
4.35349335e-13
3.80045871e-13
3.32111808e-13
2.9048033e-13
2.5433971e-13
2.22928438e-13
1.9556947e-13
1.7168225e-13
1.50776668e-13
1.32455639e-13
1.16394879e-13
1.02322762e-13
9.00071783e-14
7.92424603e-14
6.98401e-14
6.16259486e-14
5.44360875e-14
4.8090343e-14
4.2595492e-14
3.77778877e-14
3.35445874e-14
2.98167366e-14
2.65270769e-14
2.36179968e-14
2.10401399e-14
1.87512319e-14
1.67150745e-14
1.49007405e-14
1.32819119e-14
1.18363514e-14
1.05454474e-14
9.39375246e-15
8.36842113e-15
7.45846084e-15
6.65360167e-15
5.94327106e-15
5.32409019e-15
4.78279756e-15
4.30928466e-15
3.89438422e-15
3.52976036e-15
3.20797514e-15
2.92254504e-15
2.66796358e-15
2.43973051e-15
2.23446324e-15
2.05027139e-15
1.88776197e-15
1.75266839e-15
1.66237737e-15
9.22460277e-12
2.30617546e-12
2.11204678e-12
2.94333147e-12
4.1010345e-12
4.77508565e-12
3.2498313e-12
1.77678962e-12
9.85246099e-13
7.18090839e-13
7.29537374e-13
7.5566413e-13
6.36584844e-13
4.73187884e-13
3.43771974e-13
2.71825688e-13
2.55082514e-13
2.81217784e-13
3.17736197e-13
3.12258596e-13
2.75081118e-13
2.3398699e-13
2.07364231e-13
2.02949225e-13
2.20724981e-13
2.54956336e-13
2.93933417e-13
3.18416747e-13
3.21689008e-13
3.12647101e-13
3.04166208e-13
3.05607415e-13
3.21740531e-13
3.53317855e-13
3.9701219e-13
4.43777775e-13
4.81018073e-13
5.02091979e-13
5.10551781e-13
5.15537755e-13
5.26339145e-13
5.49048969e-13
5.86353157e-13
6.36811863e-13
6.95407667e-13
7.52792287e-13
8.00254214e-13
8.35109462e-13
8.61528347e-13
8.87380266e-13
9.20538295e-13
9.66546874e-13
1.02748389e-12
1.10149338e-12
1.18279539e-12
1.26377097e-12
1.33831003e-12
1.40472447e-12
1.46599321e-12
1.52769337e-12
1.5953162e-12
1.67239896e-12
1.75982965e-12
1.85674447e-12
1.9626147e-12
2.07820469e-12
2.20607658e-12
2.34920887e-12
2.51000163e-12
2.68835139e-12
2.88163861e-12
3.08502749e-12
3.29350913e-12
3.50448553e-12
3.71858952e-12
3.9413901e-12
4.18087701e-12
4.44636664e-12
4.74645044e-12
5.0880056e-12
5.47505576e-12
5.90853636e-12
6.38663654e-12
6.90634091e-12
7.46475742e-12
8.06209605e-12
8.70151314e-12
9.39001742e-12
1.01384323e-11
1.09604544e-11
1.18714439e-11
1.28870941e-11
1.40224616e-11
1.52918567e-11
1.67090201e-11
1.82874358e-11
2.00409454e-11
2.19870864e-11
2.41475725e-11
2.65482031e-11
2.92207227e-11
3.22033777e-11
3.55422866e-11
3.92924424e-11
4.35167064e-11
4.82919914e-11
5.37123954e-11
5.98898467e-11
6.6959306e-11
7.50838835e-11
8.44602434e-11
9.53357232e-11
1.08016561e-10
1.22881934e-10
1.40398718e-10
1.61137932e-10
1.85808071e-10
2.1526313e-10
2.50503822e-10
2.92624884e-10
3.42771248e-10
4.01963192e-10
4.70827358e-10
5.49234664e-10
6.36391303e-10
7.30753546e-10
8.30779542e-10
9.342099e-10
1.03987066e-09
1.14768412e-09
1.25861446e-09
1.37385839e-09
1.49801651e-09
1.63562295e-09
1.78995343e-09
1.97011776e-09
2.18426782e-09
2.44657814e-09
2.76952084e-09
3.16803784e-09
3.65819998e-09
4.24641393e-09
4.90768364e-09
5.58332003e-09
6.20435493e-09
6.72086014e-09
7.10585139e-09
7.35086715e-09
7.46002924e-09
7.44482796e-09
7.32068376e-09
7.10558007e-09
6.81978793e-09
6.47560745e-09
6.08869387e-09
5.67348136e-09
5.24270186e-09
4.80737784e-09
4.37664247e-09
3.95786513e-09
3.55677669e-09
3.17762173e-09
2.82332849e-09
2.4956859e-09
2.19551977e-09
1.92286401e-09
1.67712182e-09
1.45721369e-09
1.26170866e-09
1.08893904e-09
9.37097028e-10
8.04313759e-10
6.88719775e-10
5.8848474e-10
5.01964924e-10
4.27496402e-10
3.63592208e-10
3.08900154e-10
2.62202304e-10
2.22411739e-10
1.88566616e-10
1.59821956e-10
1.35439647e-10
1.14778228e-10
9.72835968e-11
8.24797281e-11
6.99584738e-11
5.93697755e-11
5.04144215e-11
4.28398946e-11
3.64320329e-11
3.10103908e-11
2.64192436e-11
2.25295219e-11
1.92320207e-11
1.64341094e-11
1.40582691e-11
1.20346989e-11
1.03126929e-11
8.84437437e-12
7.59666781e-12
6.53142707e-12
5.61854018e-12
4.83603496e-12
4.16603412e-12
3.59521796e-12
3.10470102e-12
2.68549868e-12
2.32435644e-12
2.01281572e-12
1.74545651e-12
1.51447199e-12
1.31519496e-12
1.14227413e-12
9.92836829e-13
8.63593965e-13
7.51526646e-13
6.54165367e-13
5.69369375e-13
4.9610117e-13
4.32747682e-13
3.7781431e-13
3.30170324e-13
2.88785337e-13
2.52863305e-13
2.21642026e-13
1.94440066e-13
1.7068082e-13
1.49884656e-13
1.31660358e-13
1.15685747e-13
1.01691018e-13
8.9445751e-14
7.87451808e-14
6.94010933e-14
6.12395668e-14
5.40974731e-14
4.77854193e-14
4.23360682e-14
3.75509656e-14
3.33457618e-14
2.96423691e-14
2.63740036e-14
2.34834591e-14
2.09217391e-14
1.86468928e-14
1.66230132e-14
1.48194333e-14
1.32100641e-14
1.17728663e-14
1.04893932e-14
9.34432935e-15
8.32492929e-15
7.42027859e-15
6.62021303e-15
5.91450929e-15
5.29878617e-15
4.76056777e-15
4.28977606e-15
3.87724493e-15
3.51466166e-15
3.19462232e-15
2.9106811e-15
2.65736902e-15
2.43022078e-15
2.22588402e-15
2.04249282e-15
1.8806682e-15
1.74613602e-15
1.65621773e-15
2.44536242e-10
2.68714802e-10
2.39444851e-10
2.03934989e-10
1.72542485e-10
1.46592962e-10
1.25474397e-10
1.08312004e-10
9.42938366e-11
8.28213908e-11
7.34150008e-11
6.569222e-11
5.93294745e-11
5.4048952e-11
4.964102e-11
4.59500809e-11
4.28454614e-11
4.02118101e-11
3.79652773e-11
3.60436115e-11
3.43915356e-11
3.29614616e-11
3.17189758e-11
3.06373689e-11
2.96918368e-11
2.88611369e-11
2.81295263e-11
2.7483616e-11
2.69126302e-11
2.64071684e-11
2.59588853e-11
2.55606067e-11
2.52078188e-11
2.48965987e-11
2.46244966e-11
2.43918512e-11
2.42025812e-11
2.40874413e-11
2.45795448e-11
4.50745155e-11
1.10331829e-10
1.64192231e-10
1.79641688e-10
1.78017974e-10
1.69105873e-10
1.57367522e-10
1.444877e-10
1.31362266e-10
1.18546529e-10
1.06586658e-10
9.57957576e-11
8.6239021e-11
7.78754364e-11
7.06229912e-11
6.43669483e-11
5.89845408e-11
5.43599074e-11
5.03797285e-11
4.69452042e-11
4.39771023e-11
4.14080396e-11
3.91753798e-11
3.72282319e-11
3.55272087e-11
3.40384469e-11
3.27303115e-11
3.15779358e-11
3.05605949e-11
2.96608865e-11
2.88644304e-11
2.81586748e-11
2.7531788e-11
2.6975664e-11
2.64837615e-11
2.60511466e-11
2.56757811e-11
2.53609817e-11
2.51129664e-11
2.502797e-11
2.75171798e-11
5.04170818e-11
9.11068585e-11
1.15499023e-10
1.28103935e-10
1.33043197e-10
1.33249552e-10
1.30467041e-10
1.25641268e-10
1.19416683e-10
1.12375681e-10
1.0498211e-10
9.75562932e-11
9.03322813e-11
8.34879073e-11
7.71245427e-11
7.12837418e-11
6.59762732e-11
6.11948915e-11
5.69100188e-11
5.3082254e-11
4.96748627e-11
4.66496598e-11
4.39646855e-11
4.1581692e-11
3.94688668e-11
3.75959665e-11
3.59351828e-11
3.44606743e-11
3.31495612e-11
3.19829459e-11
3.09456251e-11
3.00227854e-11
2.92014991e-11
2.84709344e-11
2.78225401e-11
2.72488976e-11
2.6746231e-11
2.63081553e-11
2.59397806e-11
2.58461786e-11
3.73320832e-11
6.77131232e-11
8.99437429e-11
1.04544562e-10
1.13029027e-10
1.16979876e-10
1.17704828e-10
1.16142673e-10
1.12962347e-10
1.08661102e-10
1.03625254e-10
9.81518428e-11
9.24710372e-11
8.67700047e-11
8.11917026e-11
7.58348336e-11
7.0766694e-11
6.60329268e-11
6.16555866e-11
5.7638508e-11
5.39765637e-11
5.06572464e-11
4.76605869e-11
4.496357e-11
4.25423943e-11
4.03742398e-11
3.84359088e-11
3.67042451e-11
3.51573362e-11