/*--------------------------------*- C++ -*----------------------------------*\
  =========                 |
  \\      /  F ield         | OpenFOAM: The Open Source CFD Toolbox
   \\    /   O peration     | Website:  https://openfoam.org
    \\  /    A nd           | Version:  6
     \\/     M anipulation  |
\*---------------------------------------------------------------------------*/
FoamFile
{
    version     2.0;
    format      ascii;
    class       volScalarField;
    location    "25000";
    object      NO;
}
// * * * * * * * * * * * * * * * * * * * * * * * * * * * * * * * * * * * * * //

dimensions      [0 0 0 0 0 0 0];

internalField   nonuniform List<scalar> 
44870
(
9.94981501e-75
2.78293616e-74
5.73899407e-74
6.80921537e-74
1.09342312e-73
1.55391026e-73
2.10020271e-73
2.58649209e-73
2.91379852e-73
3.36040142e-73
4.70483408e-73
5.46484984e-73
5.93265937e-73
8.33934576e-73
2.83821866e-71
4.13252853e-69
6.29114167e-67
9.74937661e-65
1.53720416e-62
2.46543384e-60
4.02024689e-58
6.66299102e-56
1.12176158e-53
1.91772337e-51
3.32703946e-49
5.85529734e-47
1.04455211e-44
1.88810181e-42
3.45445009e-40
6.39398721e-38
1.19531217e-35
2.25481576e-33
4.27925876e-31
8.15317296e-29
1.54988926e-26
2.92171791e-24
5.3802748e-22
9.48815065e-20
1.50917854e-17
2.03300932e-15
4.68435377e-75
1.73958488e-74
5.48140541e-74
7.16568406e-74
1.35594329e-73
1.79046437e-73
2.13629694e-73
2.20524641e-73
3.05032254e-73
4.38456505e-73
5.42388202e-73
5.70293202e-73
6.67413718e-73
9.19760518e-73
3.13338848e-71
4.96791928e-69
8.26428269e-67
1.40341656e-64
2.42830443e-62
4.2772472e-60
7.65676834e-58
1.39225736e-55
2.56724777e-53
4.80066225e-51
9.08776108e-49
1.74276086e-46
3.37870162e-44
6.63182318e-42
1.31453283e-39
2.63770606e-37
5.33931653e-35
1.09416413e-32
2.25890403e-30
4.7213748e-28
9.91497664e-26
2.10299562e-23
4.44161211e-21
9.36435968e-19
1.84620461e-16
3.46468732e-14
3.54914215e-74
7.58847277e-74
1.29869478e-73
1.45165062e-73
1.72228344e-73
2.44728628e-73
3.01601315e-73
3.55079401e-73
4.174083e-73
5.03307553e-73
6.17871363e-73
7.20480278e-73
8.25085188e-73
1.27164495e-72
5.92000242e-71
1.13239062e-68
2.23325931e-66
4.45519137e-64
8.96312356e-62
1.81836843e-59
3.71256539e-57
7.63411978e-55
1.57764964e-52
3.28307719e-50
6.86007957e-48
1.44422702e-45
3.0509666e-43
6.49981635e-41
1.38854431e-38
2.9961321e-36
6.47700154e-34
1.41696971e-31
3.1014569e-29
6.88895506e-27
1.52973273e-24
3.45727109e-22
7.80155847e-20
1.80622438e-17
4.01387864e-15
9.16661643e-13
3.107844e-74
4.73095456e-74
7.69539861e-74
1.04423548e-73
1.63005943e-73
2.3000023e-73
3.10236103e-73
3.53175603e-73
4.64646603e-73
5.76366345e-73
8.13387618e-73
1.05007389e-72
1.20188049e-72
3.49352759e-72
4.99771134e-70
1.13373471e-67
2.56445429e-65
5.77176179e-63
1.29240655e-60
2.88178727e-58
6.40278604e-56
1.41861206e-53
3.13508802e-51
6.9192749e-49
1.5246952e-46
3.36007716e-44
7.40003223e-42
1.63188043e-39
3.59844173e-37
7.95811381e-35
1.76035753e-32
3.9113205e-30
8.69221801e-28
1.94331309e-25
4.34526347e-23
9.76971664e-21
2.19085943e-18
4.92022153e-16
1.06932277e-13
2.26057827e-11
1.47922267e-73
1.45849238e-73
1.56903272e-73
1.48428924e-73
2.3010097e-73
3.16054716e-73
4.61017694e-73
5.83829882e-73
7.31556649e-73
8.37046807e-73
9.22161187e-73
1.01412417e-72
1.42919213e-72
4.02956904e-71
9.31974855e-69
2.20714789e-66
5.15899061e-64
1.19183135e-61
2.72521187e-59
6.17554521e-57
1.38842608e-54
3.10014037e-52
6.88065883e-50
1.51919124e-47
3.33905894e-45
7.31063134e-43
1.59527474e-40
3.47056703e-38
7.53214099e-36
1.63107416e-33
3.52592876e-31
7.61018812e-29
1.64059179e-26
3.53286543e-24
7.60192627e-22
1.63454851e-19
3.51288507e-17
7.54572986e-15
1.62016884e-12
3.49591023e-10
6.48978598e-14
2.71402757e-13
7.09266107e-13
1.53379621e-12
2.98833868e-12
5.43383244e-12
9.38301764e-12
1.55640531e-11
2.49416524e-11
3.88645137e-11
5.90252687e-11
8.77686221e-11
1.27922056e-10
1.83346357e-10
2.58733514e-10
3.60006807e-10
4.94731011e-10
6.71724898e-10
9.02954132e-10
1.20153956e-09
1.58516046e-09
2.07405398e-09
2.69358866e-09
3.47478139e-09
4.45504666e-09
5.68116291e-09
7.20386723e-09
9.09711694e-09
1.14307831e-08
1.43158616e-08
1.78589807e-08
2.22030577e-08
2.75170192e-08
3.39797002e-08
4.18397885e-08
5.1334202e-08
6.28037109e-08
7.65710671e-08
9.30803776e-08
1.12782506e-07
1.36254698e-07
1.64129019e-07
1.97140198e-07
2.36120318e-07
2.81924116e-07
3.35516496e-07
3.97907377e-07
4.70181745e-07
5.53508487e-07
6.49159361e-07
7.58491885e-07
8.82971502e-07
1.02411101e-06
1.1834918e-06
1.36265809e-06
1.56312809e-06
1.78627206e-06
2.03332384e-06
2.30531045e-06
2.6030746e-06
2.92727592e-06
3.27837945e-06
3.65674122e-06
4.06253339e-06
4.49599751e-06
4.95723326e-06
5.44659186e-06
5.96430061e-06
6.51082408e-06
7.08630014e-06
7.69080513e-06
8.32400187e-06
8.98507395e-06
9.67329568e-06
1.0386947e-05
1.11250707e-05
1.18868092e-05
1.26706469e-05
1.34755748e-05
1.4300927e-05
1.51460685e-05
1.60104702e-05
1.68938377e-05
1.77958054e-05
1.87160197e-05
1.96538356e-05
2.06087505e-05
2.15796561e-05
2.25654072e-05
2.35647461e-05
2.45761493e-05
2.55981493e-05
2.66291106e-05
2.76674956e-05
2.87119174e-05
2.97612076e-05
3.08144116e-05
3.18708417e-05
3.29300072e-05
3.39916686e-05
3.50557181e-05
3.61217867e-05
3.71893815e-05
3.82578711e-05
3.93262007e-05
4.03932326e-05
4.14574873e-05
4.25168233e-05
4.3568915e-05
4.46105633e-05
4.56378335e-05
4.66454794e-05
4.76266003e-05
4.85723974e-05
4.94715254e-05
5.03095803e-05
5.10685872e-05
5.17265635e-05
5.22573515e-05
5.26311805e-05
5.28167927e-05
5.27871103e-05
5.25305418e-05
5.2067892e-05
5.14678193e-05
5.08479055e-05
5.03549288e-05
5.01343345e-05
5.03045757e-05
5.09489822e-05
5.21197726e-05
5.38469135e-05
5.61474775e-05
5.90340789e-05
6.25204181e-05
6.66261236e-05
7.13795015e-05
7.68206604e-05
8.30036644e-05
8.99849883e-05
9.78929899e-05
0.000106788835
0.000116542624
0.000126632161
0.000136082096
0.000143958015
0.00014985928
0.00015388846
0.000156380792
0.000157746357
0.00015829649
0.000158263971
0.000157810183
0.00015704294
0.000156031686
0.000154820167
0.00015343628
0.000151898836
0.000150221907
0.000148417637
0.000146497972
0.000144475587
0.000142364168
0.000140178294
0.000137933057
0.000135643576
0.000133324484
0.000130989493
0.000128651043
0.000126320091
0.000124006001
0.000121716553
0.000119458097
0.000117235969
0.00011505123
0.000112909217
0.000110812305
0.000108760467
0.00010675423
0.000104793662
0.000102878512
0.000101008264
9.91821793e-05
9.73994094e-05
9.56590845e-05
9.39602176e-05
9.23015491e-05
9.06816798e-05
8.90995588e-05
8.7554301e-05
8.60444612e-05
8.45673745e-05
8.31216049e-05
8.1707609e-05
8.03249061e-05
7.897052e-05
7.76401565e-05
7.6336044e-05
7.50615786e-05
7.38163349e-05
7.25969127e-05
7.13967166e-05
7.02211617e-05
6.90718209e-05
6.79473812e-05
6.68454421e-05
6.57571717e-05
6.46960166e-05
6.36625085e-05
6.26518379e-05
6.16601995e-05
6.06859435e-05
5.97389558e-05
5.88153604e-05
5.7914619e-05
5.70302394e-05
5.61657194e-05
5.53255325e-05
5.45012533e-05
5.36869888e-05
5.28805348e-05
5.20830529e-05
5.12964869e-05
5.05199469e-05
4.97547781e-05
4.90027695e-05
4.8266587e-05
4.75469243e-05
4.68412592e-05
4.61457095e-05
4.54561542e-05
4.47685659e-05
4.40795509e-05
4.33870697e-05
4.26907134e-05
4.19914233e-05
4.12907743e-05
4.05910806e-05
3.98941241e-05
3.9206689e-05
3.85289157e-05
3.78636272e-05
3.72131268e-05
3.65791668e-05
3.59629595e-05
3.53651703e-05
3.4785898e-05
3.42246333e-05
3.3680212e-05
3.31507822e-05
3.26338184e-05
3.21262348e-05
3.16246659e-05
3.11259753e-05
3.06279037e-05
3.01285835e-05
2.96321695e-05
2.91422341e-05
2.86608445e-05
2.81931346e-05
2.77433866e-05
2.73148446e-05
2.69095257e-05
2.65282994e-05
2.6171242e-05
2.58382937e-05
2.55304575e-05
2.52521909e-05
2.50166916e-05
2.48580315e-05
1.33925252e-12
4.81672426e-12
1.09793043e-11
2.15418264e-11
3.91148939e-11
6.73453227e-11
1.11072899e-10
1.77082854e-10
2.73983751e-10
4.13547736e-10
6.09866223e-10
8.82035814e-10
1.25207555e-09
1.74931344e-09
2.40776051e-09
3.2685591e-09
4.3819317e-09
5.80356616e-09
7.6051391e-09
9.86025966e-09
1.26631367e-08
1.61164785e-08
2.03378379e-08
2.54710678e-08
3.16558202e-08
3.90840095e-08
4.79272039e-08
5.84181448e-08
7.07840578e-08
8.5307012e-08
1.02250164e-07
1.21929376e-07
1.44650266e-07
1.70748164e-07
2.00578335e-07
2.34498976e-07
2.72930732e-07
3.16269222e-07
3.65019704e-07
4.19634624e-07
4.80695672e-07
5.48706003e-07
6.24266831e-07
7.07958099e-07
8.00268143e-07
9.01815706e-07
1.01321032e-06
1.1351173e-06
1.26825955e-06
1.41342161e-06
1.57143298e-06
1.74317828e-06
1.92957046e-06
2.13157156e-06
2.35016789e-06
2.58639355e-06
2.84128419e-06
3.11588384e-06
3.41118207e-06
3.72810392e-06
4.06745285e-06
4.42991544e-06
4.81603924e-06
5.22627136e-06
5.66102135e-06
6.12056587e-06
6.6053571e-06
7.11574748e-06
7.65221888e-06
8.21503251e-06
8.8044027e-06
9.42023383e-06
1.00621024e-05
1.07295814e-05
1.14215252e-05
1.21372005e-05
1.28760291e-05
1.36367843e-05
1.44185966e-05
1.52209152e-05
1.60430849e-05
1.68846591e-05
1.7745381e-05
1.86248891e-05
1.95228036e-05
2.04385291e-05
2.13714852e-05
2.23206329e-05
2.32848057e-05
2.42628026e-05
2.52531161e-05
2.62542603e-05
2.72647231e-05
2.82830597e-05
2.93079736e-05
3.03383609e-05
3.13733081e-05
3.24121389e-05
3.34543479e-05
3.44996715e-05
3.55479073e-05
3.65985759e-05
3.76510896e-05
3.87047154e-05
3.97582969e-05
4.08106334e-05
4.1860109e-05
4.29044866e-05
4.39413261e-05
4.49673111e-05
4.59783069e-05
4.69689186e-05
4.79321504e-05
4.88590421e-05
4.97381319e-05
5.05549934e-05
5.12917456e-05
5.19266847e-05
5.2434236e-05
5.27857145e-05
5.29516809e-05
5.29078997e-05
5.26466832e-05
5.21931463e-05
5.16188994e-05
5.10414088e-05
5.0604014e-05
5.04470805e-05
5.06844239e-05
5.13958375e-05
5.2631617e-05
5.44209883e-05
5.67808659e-05
5.97241403e-05
6.32648628e-05
6.74230642e-05
7.22267995e-05
7.77155242e-05
8.39418471e-05
9.09683749e-05
9.89109502e-05
0.000107811871
0.000117516045
0.000127468643
0.000136708707
0.000144357553
0.000150067539
0.00015395742
0.000156358194
0.000157663941
0.000158176042
0.000158119048
0.000157648915
0.000156870353
0.000155850943
0.000154633405
0.000153245149
0.000151704776
0.000150026268
0.000148221715
0.000146303019
0.000144282783
0.000142174594
0.0001399929
0.000137752641
0.00013546877
0.000133155759
0.000130827161
0.000128495276
0.000126170938
0.000123863412
0.000121580398
0.000119328191
0.000117112214
0.000114933105
0.000112796576
0.000110704898
0.000108658008
0.000106656441
0.000104700285
0.000102789301
0.000100922986
9.91006039e-05
9.73213178e-05
9.55842893e-05
9.38885531e-05
9.22328276e-05
9.06156891e-05
8.90361538e-05
8.74934355e-05
8.59860405e-05
8.45112019e-05
8.30673652e-05
8.16554024e-05
8.02749605e-05
7.89226081e-05
7.75937355e-05
7.62907903e-05
7.50180312e-05
7.37747239e-05
7.25566867e-05
7.13572612e-05
7.01822994e-05
6.90344339e-05
6.79116718e-05
6.6810556e-05
6.57223244e-05
6.46616696e-05
6.36296643e-05
6.26201265e-05
6.16287229e-05
6.06543884e-05
5.97078254e-05
5.87853705e-05
5.78854402e-05
5.70012327e-05
5.61367145e-05
5.52969905e-05
5.44732993e-05
5.36598155e-05
5.28539244e-05
5.20569993e-05
5.12712514e-05
5.04955675e-05
4.97310512e-05
4.89795448e-05
4.82437965e-05
4.75244936e-05
4.6819031e-05
4.61235218e-05
4.54339405e-05
4.47463577e-05
4.40574303e-05
4.33651433e-05
4.26691115e-05
4.19702816e-05
4.12701664e-05
4.05710661e-05
3.98748399e-05
3.91882353e-05
3.85112685e-05
3.78467421e-05
3.71969623e-05
3.65636665e-05
3.59480574e-05
3.53507961e-05
3.47719812e-05
3.42111065e-05
3.36670148e-05
3.31378645e-05
3.26211442e-05
3.21137862e-05
3.16124469e-05
3.11140135e-05
3.06162412e-05
3.01171565e-05
2.96214769e-05
2.91319801e-05
2.86511413e-05
2.81840081e-05
2.77348295e-05
2.73068266e-05
2.69020013e-05
2.65212144e-05
2.61645395e-05
2.58319185e-05
2.55243577e-05
2.52463176e-05
2.50109931e-05
2.48524617e-05
5.03867468e-11
1.5819963e-10
3.23467417e-10
5.85906034e-10
9.90571203e-10
1.59508617e-09
2.47308337e-09
3.7161511e-09
5.42775712e-09
7.73037081e-09
1.07557353e-08
1.46596849e-08
1.96047703e-08
2.57787716e-08
3.33704547e-08
4.25838328e-08
5.36245908e-08
6.66957685e-08
8.20181187e-08
9.9807294e-08
1.20306052e-07
1.43757327e-07
1.70416289e-07
2.00544888e-07
2.34387053e-07
2.72233878e-07
3.14301096e-07
3.60859732e-07
4.12205184e-07
4.68596555e-07
5.30265372e-07
5.97458419e-07
6.7037939e-07
7.49264599e-07
8.34329956e-07
9.25849081e-07
1.02413507e-06
1.12954215e-06
1.24250138e-06
1.36337164e-06
1.49258543e-06
1.63041898e-06
1.77724572e-06
1.93335247e-06
2.09889778e-06
2.27421481e-06
2.45959853e-06
2.65537276e-06
2.86186931e-06
3.079421e-06
3.30833134e-06
3.54892871e-06
3.8015547e-06
4.06661688e-06
4.34460086e-06
4.63609555e-06
4.94176534e-06
5.2623374e-06
5.59854123e-06
5.95107058e-06
6.32054335e-06
6.7075194e-06
7.11244848e-06
7.53583842e-06
7.97804509e-06
8.43945731e-06
8.92067939e-06
9.42222322e-06
9.94470501e-06
1.04886622e-05
1.1054621e-05
1.16429225e-05
1.22537245e-05
1.28870739e-05
1.35425715e-05
1.42198537e-05
1.49187094e-05
1.5638353e-05
1.6378212e-05
1.7137905e-05
1.7917014e-05
1.87152825e-05
1.95325395e-05
2.03685488e-05
2.12229564e-05
2.20952766e-05
2.29848149e-05
2.38906976e-05
2.48117543e-05
2.57467411e-05
2.66943206e-05
2.76531296e-05
2.8621832e-05
2.95991872e-05
3.05840975e-05
3.15755963e-05
3.25728559e-05
3.35752227e-05
3.45821643e-05
3.55933587e-05
3.66083799e-05
3.76265499e-05
3.86470931e-05
3.96690679e-05
4.06911295e-05
4.17119218e-05
4.27295633e-05
4.37416521e-05
4.47454549e-05
4.5737421e-05
4.67130515e-05
4.76666998e-05
4.85910921e-05
4.94769836e-05
5.03127424e-05
5.10839706e-05
5.1773081e-05
5.23590978e-05
5.28178788e-05
5.31233207e-05
5.32501606e-05
5.31804903e-05
5.29149735e-05
5.24874978e-05
5.19749951e-05
5.14937216e-05
5.11791971e-05
5.11611834e-05
5.15439167e-05
5.24002125e-05
5.37763932e-05
5.57002816e-05
5.81884513e-05
6.12543729e-05
6.49127538e-05
6.91843444e-05
7.40963337e-05
7.96864337e-05
8.60025737e-05
9.312626e-05
0.000101136495
0.000110035176
0.000119605849
0.000129238131
0.00013801287
0.000145178056
0.000150485784
0.000154084597
0.000156294313
0.000157474322
0.000157906244
0.00015779737
0.000157292398
0.000156489673
0.000155452801
0.000154222414
0.000152824898
0.00015127839
0.00014959668
0.000147791741
0.00014587537
0.000143860013
0.000141759034
0.000139586597
0.000137357309
0.000135085771
0.000132786098
0.000130471505
0.000128153989
0.00012584412
0.000123550947
0.000121282
0.000119043458
0.000116840962
0.000114674145
0.000112549616
0.000110469363
0.000108433289
0.000106441942
0.00010449544
0.000102593573
0.000100735862
9.89215978e-05
9.71499615e-05
9.5420147e-05
9.3731228e-05
9.20819486e-05
9.04708892e-05
8.88970888e-05
8.73598231e-05
8.5857563e-05
8.43878084e-05
8.29486307e-05
8.15411163e-05
8.01650466e-05
7.88168526e-05
7.74918934e-05
7.61923501e-05
7.49228459e-05
7.36825376e-05
7.2467388e-05
7.12709664e-05
7.0098321e-05
6.8952628e-05
6.78320457e-05
6.67329021e-05
6.56465104e-05
6.45876924e-05
6.35575712e-05
6.25492445e-05
6.15589583e-05
6.05859092e-05
5.96404651e-05
5.87192764e-05
5.78203292e-05
5.69371099e-05
5.60734831e-05
5.52356113e-05
5.44121601e-05
5.35995364e-05
5.27952413e-05
5.19999454e-05
5.12157937e-05
5.04416481e-05
4.96785265e-05
4.89283286e-05
4.81936502e-05
4.74750809e-05
4.67700274e-05
4.607467e-05
4.53851159e-05
4.46975811e-05
4.40088513e-05
4.3317e-05
4.26216967e-05
4.19238903e-05
4.12249579e-05
4.05271054e-05
3.983253e-05
3.91477415e-05
3.84725302e-05
3.78096706e-05
3.71614677e-05
3.65296265e-05
3.59153285e-05
3.53192247e-05
3.47414133e-05
3.41813958e-05
3.36380293e-05
3.31094947e-05
3.25933117e-05
3.20864521e-05
3.15856202e-05
3.10877563e-05
3.05906701e-05
3.00915443e-05
2.95980904e-05
2.91094817e-05
2.86298426e-05
2.8163973e-05
2.77160423e-05
2.72892198e-05
2.68854747e-05
2.65056501e-05
2.61498135e-05
2.58179096e-05
2.55109517e-05
2.52334075e-05
2.49984676e-05
2.48402045e-05
2.02488856e-09
5.02820195e-09
9.10052804e-09
1.45419566e-08
2.18249286e-08
3.15766129e-08
4.43270966e-08
6.04810471e-08
8.02999046e-08
1.04014789e-07
1.31863244e-07
1.64159257e-07
2.01133301e-07
2.42984754e-07
2.89718757e-07
3.41322087e-07
3.9763777e-07
4.58602905e-07
5.24309656e-07
5.94926824e-07
6.7071714e-07
7.51830844e-07
8.38422808e-07
9.30439335e-07
1.0279275e-06
1.13086247e-06
1.23936203e-06
1.35366353e-06
1.47418752e-06
1.60121748e-06
1.73498345e-06
1.87561379e-06
2.02315184e-06
2.1776765e-06
2.33934772e-06
2.50849479e-06
2.68556252e-06
2.87106599e-06
3.06543732e-06
3.26888189e-06
3.48148016e-06
3.70305621e-06
3.93349544e-06
4.17262618e-06
4.42020607e-06
4.67627337e-06
4.94085363e-06
5.21398062e-06
5.49563351e-06
5.78569844e-06
6.084017e-06
6.39047745e-06
6.70506662e-06
7.02797453e-06
7.35956638e-06
7.7003772e-06
8.0510037e-06
8.41203094e-06
8.78395037e-06
9.16710767e-06
9.56177275e-06
9.96813685e-06
1.03864137e-05
1.08168737e-05
1.12598591e-05
1.17158539e-05
1.21855935e-05
1.26698715e-05
1.3169658e-05
1.36859334e-05
1.42196815e-05
1.47717247e-05
1.53426982e-05
1.59329841e-05
1.65426131e-05
1.71714383e-05
1.7819476e-05
1.84862962e-05
1.91716632e-05
1.98754434e-05
2.05977285e-05
2.13385469e-05
2.20978966e-05
2.28757632e-05
2.36718416e-05
2.44857311e-05
2.53166765e-05
2.61637638e-05
2.70259064e-05
2.79019375e-05
2.87907079e-05
2.96910981e-05
3.06020425e-05
3.15225954e-05
3.24519205e-05
3.33892164e-05
3.4333747e-05
3.52848691e-05
3.62419927e-05
3.72046416e-05
3.81720745e-05
3.91433738e-05
4.01175083e-05
4.10932507e-05
4.20690594e-05
4.30432554e-05
4.40136982e-05
4.49777666e-05
4.59322825e-05
4.68733569e-05
4.77961522e-05
4.86946101e-05
4.95611213e-05
5.03861725e-05
5.11580431e-05
5.18625954e-05
5.24829332e-05
5.2999506e-05
5.33907613e-05
5.36350325e-05
5.37137998e-05
5.36188138e-05
5.33625674e-05
5.29902422e-05
5.25838461e-05
5.22556193e-05
5.21288383e-05
5.23187493e-05
5.29166995e-05
5.39865615e-05
5.55694961e-05
5.76916066e-05
6.03689427e-05
6.36157853e-05
6.7447427e-05
7.1885436e-05
7.69546104e-05
8.26887762e-05
8.91495667e-05
9.63992035e-05
0.000104478821
0.000113325879
0.000122632094
0.000131732042
0.000139803206
0.000146275016
0.000151020145
0.000154215406
0.000156161069
0.000157164504
0.000157483488
0.000157300797
0.000156745781
0.000155908233
0.000154846168
0.000153597334
0.000152186693
0.000150631711
0.000148945885
0.000147141009
0.000145228705
0.000143221176
0.000141131447
0.000138973251
0.000136760707
0.000134507888
0.000132228389
0.000129934929
0.000127639057
0.000125350962
0.000123079373
0.000120831573
0.000118613564
0.000116431438
0.000114281289
0.000112176628
0.000110113465
0.000108093646
0.000106117681
0.000104185713
0.000102297572
0.000100452826
9.8650808e-05
9.68907216e-05
9.51717742e-05
9.34931039e-05
9.18535637e-05
9.02517733e-05
8.86866716e-05
8.715753e-05
8.56631279e-05
8.42010256e-05
8.2769196e-05
8.13683922e-05
7.99982846e-05
7.86562077e-05
7.73378432e-05
7.60441597e-05
7.47790533e-05
7.35418068e-05
7.23311533e-05
7.11405254e-05
6.99724249e-05
6.88288854e-05
6.77099284e-05
6.66142094e-05
6.55321993e-05
6.44770652e-05
6.34483015e-05
6.24404572e-05
6.14526056e-05
6.04828101e-05
5.95394423e-05
5.86187814e-05
5.77204999e-05
5.68394331e-05
5.59781233e-05
5.51402957e-05
5.43178726e-05
5.35074537e-05
5.27058702e-05
5.19134445e-05
5.11315814e-05
5.03593557e-05
4.95982973e-05
4.88502983e-05
4.81174023e-05
4.73999447e-05
4.66955017e-05
4.60004699e-05
4.53110786e-05
4.46236876e-05
4.39352817e-05
4.32441121e-05
4.25499398e-05
4.18537034e-05
4.11565828e-05
4.04605083e-05
3.97685754e-05
3.90864853e-05
3.84138995e-05
3.77535467e-05
3.71077191e-05
3.64780716e-05
3.58657523e-05
3.5271397e-05
3.46951035e-05
3.41363844e-05
3.3594119e-05
3.30665218e-05
3.25511586e-05
3.2045061e-05
3.15450049e-05
3.10480112e-05
3.05520245e-05
3.00552829e-05
2.95625259e-05
2.90754157e-05
2.85975971e-05
2.81336354e-05
2.76875869e-05
2.72625442e-05
2.68604275e-05
2.64820541e-05
2.61274831e-05
2.57966617e-05
2.54906136e-05
2.52138177e-05
2.49794607e-05
2.48215917e-05
7.86281178e-08
1.22599751e-07
1.65293403e-07
2.13263546e-07
2.75723429e-07
3.56261963e-07
4.5092731e-07
5.54622127e-07
6.63686261e-07
7.76946126e-07
8.95815532e-07
1.02183654e-06
1.15440085e-06
1.2916732e-06
1.43123988e-06
1.5713571e-06
1.71178617e-06
1.8541243e-06
2.00117332e-06
2.15508856e-06
2.31660078e-06
2.48490412e-06
2.65847682e-06
2.83571248e-06
3.01602917e-06
3.199775e-06
3.38881742e-06
3.5852777e-06
3.79043324e-06
4.00446361e-06
4.22644198e-06
4.45489629e-06
4.68860508e-06
4.92724087e-06
5.17151523e-06
5.42297044e-06
5.68319847e-06
5.95322415e-06
6.23300212e-06
6.52157892e-06
6.81757936e-06
7.11963574e-06
7.4269799e-06
7.7393631e-06
8.05686811e-06
8.37994195e-06
8.70874188e-06
9.04300826e-06
9.38207107e-06
9.72508467e-06
1.00713414e-05
1.04205768e-05
1.07730305e-05
1.11294656e-05
1.1490845e-05
1.18581419e-05
1.22320053e-05
1.26127056e-05
1.3000159e-05
1.33940321e-05
1.37940441e-05
1.41999332e-05
1.46117682e-05
1.50296114e-05
1.54541214e-05
1.58860567e-05
1.6326468e-05
1.67767049e-05
1.72383559e-05
1.77129408e-05
1.82019072e-05
1.87063509e-05
1.92269909e-05
1.97641081e-05
2.03176502e-05
2.08874324e-05
2.14735728e-05
2.20759651e-05
2.26948141e-05
2.33305567e-05
2.39837914e-05
2.46550154e-05
2.53445101e-05
2.6052358e-05
2.67782056e-05
2.75216141e-05
2.82816733e-05
2.9057382e-05
2.98477529e-05
3.06518164e-05
3.14687158e-05
3.22976814e-05
3.31380143e-05
3.3989111e-05
3.48503886e-05
3.57211814e-05
3.66007799e-05
3.74885209e-05
3.83836085e-05
3.92853145e-05
4.01925545e-05
4.110414e-05
4.20187222e-05
4.29347591e-05
4.38505202e-05
4.47639331e-05
4.56726126e-05
4.65736319e-05
4.74633797e-05
4.83375633e-05
4.91910138e-05
5.00173116e-05
5.08085693e-05
5.15551605e-05
5.22455628e-05
5.28664163e-05
5.34022114e-05
5.38359258e-05
5.4150236e-05
5.43302865e-05
5.43669906e-05
5.42645893e-05
5.40491903e-05
5.37771635e-05
5.35322438e-05
5.3418481e-05
5.35428913e-05
5.40044271e-05
5.48800782e-05
5.62239306e-05
5.80718569e-05
6.04482227e-05
6.33681428e-05
6.68469304e-05
7.08996698e-05
7.55486054e-05
8.08125106e-05
8.6739646e-05
9.33728177e-05
0.0001007486
0.000108854767
0.000117534878
0.000126376622
0.000134703302
0.000141861073
0.000147488143
0.000151564477
0.000154284694
0.00015591404
0.000156711838
0.000156894832
0.000156621918
0.000156004934
0.000155124139
0.000154030805
0.000152759295
0.000151332805
0.000149768062
0.000148078113
0.000146274515
0.000144368639
0.000142372351
0.000140298217
0.000138159411
0.000135969412
0.000133741622
0.000131488964
0.000129223527
0.000126956293
0.000124696962
0.000122453863
0.000120233957
0.000118043015
0.000115887994
0.00011376161
0.000111681115
0.000109640578
0.000107642223
0.000105686584
0.000103773835
0.000101903846
0.00010007625
9.8290455e-05
9.65456885e-05
9.48411388e-05
9.31760165e-05
9.15493882e-05
8.99599833e-05
8.8406497e-05
8.68880557e-05
8.54038115e-05
8.39520534e-05
8.25303809e-05
8.11386093e-05
7.97758465e-05
7.84416089e-05
7.71325916e-05
7.58474117e-05
7.45878203e-05
7.33533995e-05
7.21486918e-05
7.09668489e-05
6.98057079e-05
6.86642128e-05
6.75459112e-05
6.64551048e-05
6.53802077e-05
6.43307884e-05
6.33026274e-05
6.22943839e-05
6.13104427e-05
6.03459596e-05
5.94057121e-05
5.84845515e-05
5.75865274e-05
5.67089042e-05
5.58514128e-05
5.50149131e-05
5.41924321e-05
5.33839467e-05
5.25862868e-05
5.17978998e-05
5.10188753e-05
5.02488013e-05
4.94904568e-05
4.87455466e-05
4.80151263e-05
4.72991373e-05
4.65955333e-05
4.590107e-05
4.52120557e-05
4.4524975e-05
4.38370841e-05
4.31469047e-05
4.24543153e-05
4.17602242e-05
4.10655833e-05
4.03716592e-05
3.96836151e-05
3.900497e-05
3.83358207e-05
3.76787803e-05
3.70360983e-05
3.64093585e-05
3.57996643e-05
3.52076314e-05
3.46333572e-05
3.40763694e-05
3.35355762e-05
3.30092361e-05
3.24949764e-05
3.19899071e-05
3.1490898e-05
3.09950756e-05
3.05005305e-05
3.00061152e-05
2.95150079e-05
2.90300263e-05
2.85546391e-05
2.8093208e-05
2.76496528e-05
2.72269669e-05
2.68270063e-05
2.64505557e-05
2.6097663e-05
2.57682773e-05
2.54634359e-05
2.51876333e-05
2.49540517e-05
2.47967e-05
1.86853208e-06
1.49052716e-06
1.38277485e-06
1.46455385e-06
1.73645444e-06
2.07080496e-06
2.33440033e-06
2.52718492e-06
2.67949853e-06
2.82648227e-06
3.00277792e-06
3.20690156e-06
3.41267616e-06
3.60133447e-06
3.76725107e-06
3.91590039e-06
4.06131938e-06
4.22204371e-06
4.4104808e-06
4.62261776e-06
4.84618858e-06
5.06861657e-06
5.28255544e-06
5.48719777e-06
5.68839272e-06
5.89576512e-06
6.11944713e-06
6.36355855e-06
6.62489775e-06
6.89620222e-06
7.16989903e-06
7.44112254e-06
7.70937556e-06
7.97831929e-06
8.25414323e-06
8.54268052e-06
8.84639045e-06
9.16373609e-06
9.4904067e-06
9.82157626e-06
1.01537244e-05
1.04854037e-05
1.08174536e-05
1.11518818e-05
1.14906888e-05
1.18349712e-05
1.21840744e-05
1.25360465e-05
1.28885836e-05
1.32399522e-05
1.35895915e-05
1.39382948e-05
1.42878093e-05
1.4640338e-05
1.49976255e-05
1.53606671e-05
1.57293567e-05
1.61028904e-05
1.64801816e-05
1.68602361e-05
1.72425541e-05
1.76269139e-05
1.80136504e-05
1.84031128e-05
1.87963457e-05
1.91945933e-05
1.95994883e-05
2.00129102e-05
2.04369728e-05
2.08734404e-05
2.13238209e-05
2.17888889e-05
2.22688664e-05
2.27634819e-05
2.32722853e-05
2.37950129e-05
2.43319571e-05
2.48833971e-05
2.54500718e-05
2.60330211e-05
2.66332587e-05
2.72515413e-05
2.78882214e-05
2.85432572e-05
2.92161011e-05
2.99060963e-05
3.06121735e-05
3.13333304e-05
3.20687153e-05
3.28176069e-05
3.35794638e-05
3.43538303e-05
3.51403056e-05
3.59384775e-05
3.6747878e-05
3.75678883e-05
3.83977005e-05
3.92365179e-05
4.00835185e-05
4.09374946e-05
4.17972607e-05
4.26614083e-05
4.35283749e-05
4.43964305e-05
4.52637296e-05
4.61280334e-05
4.69867285e-05
4.78366689e-05
4.86740077e-05
4.94942303e-05
5.0292057e-05
5.10609209e-05
5.17929098e-05
5.24785664e-05
5.31068759e-05
5.366561e-05
5.41408791e-05
5.45184043e-05
5.47850604e-05
5.49322934e-05
5.49586113e-05
5.48773865e-05
5.47230211e-05
5.45572985e-05
5.44610317e-05
5.45301696e-05
5.4859134e-05
5.55368596e-05
5.66308153e-05
5.81888131e-05
6.02434776e-05
6.28183632e-05
6.5927196e-05
6.95862304e-05
7.38089443e-05
7.86176e-05
8.40368377e-05
9.01050688e-05
9.68494935e-05
0.000104277815
0.000112324936
0.000120758008
0.000129115481
0.000136777531
0.000143235353
0.000148252007
0.000151858449
0.000154245088
0.000155650534
0.000156300708
0.000156385664
0.000156046797
0.00015538438
0.000154471318
0.000153354663
0.000152066469
0.000150628741
0.000149057541
0.0001473656
0.000145564265
0.000143664685
0.000141678434
0.000139617703
0.000137495214
0.000135323943
0.000133116766
0.000130886084
0.000128643497
0.000126399549
0.000124163563
0.00012194356
0.000119746255
0.000117577213
0.000115444402
0.000113337165
0.0001112761
0.000109253946
0.000107273009
0.000105333873
0.000103436742
0.000101581515
9.97678663e-05
9.79952575e-05
9.62629608e-05
9.45701797e-05
9.29161464e-05
9.13000116e-05
8.97206109e-05
8.81766323e-05
8.66671144e-05
8.51912714e-05
8.37476811e-05
8.23339836e-05
8.09496928e-05
7.95937469e-05
7.82658909e-05
7.69635605e-05
7.56845164e-05
7.44302232e-05
7.31999428e-05
7.19997234e-05
7.08234413e-05
6.96667315e-05
6.85285051e-05
6.7412895e-05
6.63253981e-05
6.52544096e-05
6.42085958e-05
6.31829225e-05
6.21762855e-05
6.11946603e-05
6.02327872e-05
5.92945722e-05
5.83747821e-05
5.74780605e-05
5.66023501e-05
5.57467589e-05
5.49115318e-05
5.40901364e-05
5.32834148e-05
5.24882336e-05
5.17024632e-05
5.09257143e-05
5.0157801e-05
4.94016758e-05
4.86589623e-05
4.79303637e-05
4.72156381e-05
4.65128454e-05
4.58188905e-05
4.51302176e-05
4.44434912e-05
4.37561794e-05
4.30669547e-05
4.23757627e-05
4.16835014e-05
4.09910156e-05
4.0298585e-05
3.96142659e-05
3.89381803e-05
3.82717852e-05
3.76174378e-05
3.69773198e-05
3.63529516e-05
3.57454007e-05
3.5155267e-05
3.45826477e-05
3.40270823e-05
3.34875025e-05
3.2962203e-05
3.24488605e-05
3.19446485e-05
3.14465123e-05
3.09516623e-05
3.04582918e-05
2.99655273e-05
2.94759653e-05
2.89927849e-05
2.8519393e-05
2.80600258e-05
2.76185013e-05
2.71977357e-05
2.67995333e-05
2.64246508e-05
2.6073127e-05
2.57449137e-05
2.54410592e-05
2.51660694e-05
2.49331226e-05
2.47761924e-05
4.83259151e-07
9.32202587e-07
1.32421145e-06
1.67050474e-06
1.97612914e-06
2.24455691e-06
2.47923684e-06
2.6844925e-06
2.864515e-06
3.02404897e-06
3.16687294e-06
3.29576134e-06
3.41328157e-06
3.52165355e-06
3.62239149e-06
3.71661309e-06
3.80539879e-06
3.88966473e-06
3.96998666e-06
4.04684347e-06
4.12078101e-06
4.19220743e-06
4.26136647e-06
4.32850197e-06
4.393929e-06
4.45786127e-06
4.52042375e-06
4.58174124e-06
4.64188781e-06
4.70099175e-06
4.75914036e-06
4.81634295e-06
4.8724039e-06
4.92709796e-06
4.97988471e-06
5.02957102e-06
5.0740834e-06
5.10784484e-06
5.13108854e-06
5.16200633e-06
4.4334866e-07
8.37046784e-07
1.17659042e-06
1.47458481e-06
1.73982441e-06
1.97828821e-06
2.19352585e-06
2.38820045e-06
2.56437046e-06
2.72447747e-06
2.87086842e-06
3.00529801e-06
3.12917322e-06
3.24400118e-06
3.35111592e-06
3.45153968e-06
3.54608337e-06
3.63555912e-06
3.72066392e-06
3.80193072e-06
3.87980259e-06
3.95473082e-06
4.02708916e-06
4.09715816e-06
4.16518492e-06
4.23144033e-06
4.29611395e-06
4.3593622e-06
4.42132664e-06
4.4821167e-06
4.54181262e-06
4.60050671e-06
4.65811451e-06
4.71447262e-06
4.76922634e-06
4.82160524e-06
4.86997608e-06
4.91212895e-06
4.94471636e-06
4.96946405e-06
4.04576032e-07
7.71484704e-07
1.08844863e-06
1.36447979e-06
1.60847377e-06
1.82741468e-06
2.02617804e-06
2.20780531e-06
2.37434105e-06
2.52757238e-06
2.6691988e-06
2.8006488e-06
2.92301301e-06
3.0372757e-06
3.14446504e-06
3.24550049e-06
3.34109191e-06
3.43180108e-06
3.51823561e-06
3.60096479e-06
3.68037055e-06
3.75677117e-06
3.83056078e-06
3.90208499e-06
3.97155642e-06
4.03916745e-06
4.10511414e-06
4.16960399e-06
4.23284687e-06
4.29498646e-06
4.35606895e-06
4.41616214e-06
4.47533377e-06
4.53359291e-06
4.59083301e-06
4.64688891e-06
4.70134004e-06
4.75401053e-06
4.80500166e-06
4.85738831e-06
3.92893366e-07
7.45976817e-07
1.05370256e-06
1.3223721e-06
1.55951127e-06
1.77144546e-06
1.96313429e-06
2.13816443e-06
2.29913619e-06
2.4479609e-06
2.58619343e-06
2.71515096e-06
2.83588129e-06
2.94923274e-06
3.05601207e-06
3.15700828e-06
3.25287765e-06
3.34413979e-06
3.43130452e-06
3.51486346e-06
3.59520539e-06
3.67265691e-06
3.74755404e-06
3.82019483e-06
3.89083601e-06
3.95966499e-06
4.0268648e-06