/*--------------------------------*- C++ -*----------------------------------*\
  =========                 |
  \\      /  F ield         | OpenFOAM: The Open Source CFD Toolbox
   \\    /   O peration     | Website:  https://openfoam.org
    \\  /    A nd           | Version:  6
     \\/     M anipulation  |
\*---------------------------------------------------------------------------*/
FoamFile
{
    version     2.0;
    format      ascii;
    class       volScalarField;
    location    "25000";
    object      NO2;
}
// * * * * * * * * * * * * * * * * * * * * * * * * * * * * * * * * * * * * * //

dimensions      [0 0 0 0 0 0 0];

internalField   nonuniform List<scalar> 
44870
(
1.34261469e-102
1.65837247e-100
2.03852841e-98
2.53414982e-96
3.18850734e-94
4.06299288e-92
5.24684632e-90
6.87124951e-88
9.13233358e-86
1.23262744e-83
1.69074025e-81
2.35808753e-79
3.34565038e-77
4.83052864e-75
7.09874204e-73
1.06192181e-70
1.61692449e-68
2.50572322e-66
3.95079743e-64
6.33643856e-62
1.03324933e-59
1.71247493e-57
2.88310497e-55
4.92893826e-53
8.5513749e-51
1.50501596e-48
2.68497781e-46
4.85355062e-44
8.88061028e-42
1.64388995e-39
3.07346428e-37
5.7984762e-35
1.10062443e-32
2.09737724e-30
3.98792032e-28
7.51962567e-26
1.38514199e-23
2.44358335e-21
3.88856643e-19
5.24168878e-17
9.69222128e-103
1.19012997e-100
1.45572924e-98
1.80553481e-96
2.27571364e-94
2.92042273e-92
3.82360489e-90
5.11645805e-88
7.00850342e-86
9.83862563e-84
1.41661332e-81
2.09261063e-79
3.17095829e-77
4.92646555e-75
7.83943402e-73
1.27657214e-70
2.12396009e-68
3.60679684e-66
6.24069356e-64
1.09923373e-61
1.96774385e-59
3.57800876e-57
6.5976619e-55
1.23374536e-52
2.3355294e-50
4.47891219e-48
8.68347631e-46
1.70446885e-43
3.37865681e-41
6.77986003e-39
1.37248739e-36
2.81281906e-34
5.80770524e-32
1.21404399e-29
2.54997446e-27
5.40979626e-25
1.14290004e-22
2.41045157e-20
4.75449564e-18
8.92755223e-16
4.1668624e-103
4.97939639e-101
5.99572447e-99
7.46012923e-97
9.67023855e-95
1.31321662e-92
1.87538867e-90
2.81921624e-88
4.45237058e-86
7.36136181e-84
1.26748196e-81
2.25964295e-79
4.14723541e-77
7.79616136e-75
1.49381227e-72
2.9099914e-70
5.73949916e-68
1.14497255e-65
2.30347197e-63
4.67306196e-61
9.54094015e-59
1.96189046e-56
4.05439852e-54
8.43720256e-52
1.76298882e-49
3.71159466e-47
7.84095632e-45
1.67048002e-42
3.56870756e-40
7.70062451e-38
1.664777e-35
3.64219924e-33
7.97251482e-31
1.77098707e-28
3.93299171e-26
8.89002575e-24
2.00650505e-21
4.64682355e-19
1.03309596e-16
2.36069965e-14
8.6997207e-104
1.03461302e-101
1.40211252e-99
2.20197967e-97
3.94499831e-95
7.82706068e-93
1.66599931e-90
3.70595996e-88
8.45357418e-86
1.95286166e-83
4.53227919e-81
1.05160645e-78
2.43168668e-76
5.59660555e-74
1.2805814e-71
2.91367619e-69
6.59060396e-67
1.48331434e-64
3.32138886e-62
7.40592932e-60
1.64545123e-57
3.64568717e-55
8.05687465e-53
1.77819762e-50
3.91838034e-48
8.63532266e-46
1.90182455e-43
4.19406051e-41
9.24852294e-39
2.045416e-36
4.52468153e-34
1.00537519e-31
2.23437059e-29
4.99561583e-27
1.11709551e-24
2.51184372e-22
5.63349005e-20
1.26539775e-17
2.75097261e-15
5.81874423e-13
1.31563182e-104
3.44018152e-102
1.15650398e-99
3.87161922e-97
1.25038012e-94
3.87284437e-92
1.15178837e-89
3.29917151e-87
9.13335238e-85
2.4520585e-82
6.40475668e-80
1.63243692e-77
4.07110268e-75
9.95854816e-73
2.39473602e-70
5.67234188e-68
1.32583797e-65
3.06292325e-63
7.00355347e-61
1.58705377e-58
3.56811281e-56
7.9670586e-54
1.76827144e-51
3.90422737e-49
8.58128011e-47
1.87884043e-44
4.09995673e-42
8.91979448e-40
1.93590999e-37
4.19231689e-35
9.06292532e-33
1.95616135e-30
4.21718875e-28
9.08154209e-26
1.95417552e-23
4.20184756e-21
9.03032672e-19
1.93969025e-16
4.16465039e-14
8.9859009e-12
1.68225622e-15
7.69455901e-15
2.1994842e-14
5.26191947e-14
1.14786697e-13
2.35630241e-13
4.60513177e-13
8.62510851e-13
1.55048382e-12
2.68787443e-12
4.49899798e-12
7.30804493e-12
1.15369162e-11
1.77790117e-11
2.67985762e-11
3.95989659e-11
5.75024079e-11
8.2128953e-11
1.15692473e-10
1.60756946e-10
2.20781777e-10
2.99871069e-10
4.03230765e-10
5.37324453e-10
7.10065108e-10
9.31420932e-10
1.21250911e-09
1.56919063e-09
2.01712868e-09
2.58032783e-09
3.2826376e-09
4.15556318e-09
5.23636163e-09
6.56489911e-09
8.19541848e-09
1.01803697e-08
1.25931978e-08
1.55039422e-08
1.90066925e-08
2.31964006e-08
2.81921948e-08
3.41224174e-08
4.11333072e-08
4.93865866e-08
5.90446047e-08
7.02852632e-08
8.32890498e-08
9.8243576e-08
1.15344213e-07
1.34796352e-07
1.56811144e-07
1.81607852e-07
2.09402059e-07
2.40407697e-07
2.74818787e-07
3.12810743e-07
3.54522098e-07
4.00057979e-07
4.49482502e-07
5.0282536e-07
5.60085407e-07
6.21232657e-07
6.86221669e-07
7.5498446e-07
8.27459583e-07
9.03566361e-07
9.83240734e-07
1.06638947e-06
1.1529142e-06
1.2426519e-06
1.33539021e-06
1.43083457e-06
1.52860605e-06
1.6282715e-06
1.72929383e-06
1.8311104e-06
1.93312402e-06
2.03465791e-06
2.13503713e-06
2.23358865e-06
2.32965486e-06
2.42262078e-06
2.51192595e-06
2.59707963e-06
2.677667e-06
2.75336654e-06
2.8239263e-06
2.88919663e-06
2.94909597e-06
3.00359863e-06
3.05272271e-06
3.09648777e-06
3.13491211e-06
3.16796837e-06
3.195555e-06
3.21746669e-06
3.23337508e-06
3.24280672e-06
3.24514185e-06
3.2396e-06
3.22526265e-06
3.20111739e-06
3.16608297e-06
3.11902558e-06
3.05883956e-06
2.98443122e-06
2.89480325e-06
2.78917691e-06
2.66695794e-06
2.52794344e-06
2.37237832e-06
2.20117418e-06
2.01606979e-06
1.81972227e-06
1.61580426e-06
1.40894513e-06
1.20449359e-06
1.00809619e-06
8.2513863e-07
6.60157703e-07
5.16334805e-07
3.95217894e-07
2.96706602e-07
2.19257477e-07
1.60223935e-07
1.16347086e-07
8.42998592e-08
6.11281247e-08
4.44486981e-08
3.2456468e-08
2.38313658e-08
1.76245985e-08
1.31575666e-08
9.94682092e-09
7.6491119e-09
6.02060889e-09
4.88894277e-09
4.13312362e-09
3.66982694e-09
3.44317142e-09
3.43537994e-09
3.64401828e-09
4.08628618e-09
4.78878733e-09
5.75601028e-09
6.95614544e-09
8.34926473e-09
9.91033909e-09
1.16224474e-08
1.35049187e-08
1.55673463e-08
1.78177687e-08
2.02610624e-08
2.29149056e-08
2.57967001e-08
2.89203339e-08
3.22964823e-08
3.59333225e-08
3.98377121e-08
4.401639e-08
4.84768573e-08
5.322809e-08
5.82811989e-08
6.36499692e-08
6.9351279e-08
7.54053949e-08
8.1836137e-08
8.86709269e-08
9.59405507e-08
1.03677956e-07
1.11912996e-07
1.2064979e-07
1.29776048e-07
1.38937948e-07
1.50242523e-07
1.62290077e-07
1.74703644e-07
1.8798766e-07
2.02220999e-07
2.17497792e-07
2.33912841e-07
2.51565135e-07
2.70561567e-07
2.91017943e-07
3.13059146e-07
3.36821596e-07
3.62457915e-07
3.90137778e-07
4.2003901e-07
4.52349413e-07
4.87284192e-07
5.25122352e-07
5.66128162e-07
6.10521391e-07
6.58540075e-07
7.10544347e-07
7.66993587e-07
8.2807201e-07
8.93830894e-07
9.6445828e-07
1.04042854e-06
1.12248764e-06
1.21056732e-06
1.30458913e-06
1.4048392e-06
1.51174481e-06
1.62653812e-06
1.74788147e-06
1.87535194e-06
2.009476e-06
2.15067898e-06
2.29921008e-06
2.4532492e-06
2.6130596e-06
2.77846528e-06
2.95046189e-06
3.12815449e-06
3.31023898e-06
3.49828824e-06
3.69337514e-06
3.89585525e-06
4.10518824e-06
4.32051167e-06
4.54170021e-06
4.76808147e-06
4.998845e-06
5.2328912e-06
5.46963425e-06
5.70935305e-06
5.95257163e-06
6.199663e-06
6.45074703e-06
6.70556754e-06
6.96336877e-06
7.22293463e-06
7.48276735e-06
7.74137228e-06
7.99772637e-06
8.25004148e-06
8.4966098e-06
8.73679137e-06
8.97000655e-06
9.19593906e-06
9.41451338e-06
9.62587257e-06
9.83034506e-06
1.00283963e-05
1.02205581e-05
1.04073315e-05
1.05890598e-05
1.0765775e-05
1.09370363e-05
1.11018115e-05
1.12584806e-05
1.14050618e-05
1.15399398e-05
1.16612469e-05
1.1768966e-05
1.18636413e-05
1.19468599e-05
1.20207057e-05
1.20874647e-05
1.21493414e-05
1.22082499e-05
1.2265663e-05
1.23224703e-05
1.2378742e-05
1.24332144e-05
1.24821036e-05
1.25165024e-05
3.46782743e-14
1.39921642e-13
3.57140754e-13
7.95181391e-13
1.65770008e-12
3.29308108e-12
6.24803969e-12
1.13629194e-11
1.98145902e-11
3.32876863e-11
5.39693784e-11
8.49077209e-11
1.29889993e-10
1.94069054e-10
2.83778651e-10
4.06970227e-10
5.7362938e-10
7.95383136e-10
1.08721592e-09
1.4654062e-09
1.950588e-09
2.56588651e-09
3.33801397e-09
4.29935379e-09
5.48254989e-09
6.93063095e-09
8.68372795e-09
1.0793862e-08
1.3312353e-08
1.63007375e-08
1.98165432e-08
2.39261971e-08
2.86926938e-08
3.41828456e-08
4.04644467e-08
4.76034606e-08
5.56735328e-08
6.47407556e-08
7.48863194e-08
8.61780588e-08
9.87012393e-08
1.12522565e-07
1.27720639e-07
1.4436539e-07
1.62509156e-07
1.82222628e-07
2.03573624e-07
2.26637918e-07
2.51499838e-07
2.78252601e-07
3.06996201e-07
3.37838388e-07
3.70891245e-07
4.06272997e-07
4.44105216e-07
4.84514024e-07
5.27623993e-07
5.73556532e-07
6.22421305e-07
6.74313107e-07
7.29304818e-07
7.87448313e-07
8.48771455e-07
9.13284329e-07
9.80980761e-07
1.05183164e-06
1.1258029e-06
1.20283066e-06
1.28282655e-06
1.36565141e-06
1.45111681e-06
1.5389667e-06
1.62887825e-06
1.72046573e-06
1.81327387e-06
1.90679245e-06
2.00048995e-06
2.09377169e-06
2.18603985e-06
2.27669733e-06
2.36516082e-06
2.4508837e-06
2.53335839e-06
2.61213276e-06
2.6868145e-06
2.75708703e-06
2.82268702e-06
2.88344056e-06
2.93922852e-06
2.98997116e-06
3.0356329e-06
3.07617942e-06
3.11156628e-06
3.14170888e-06
3.16645407e-06
3.18555419e-06
3.19864932e-06
3.20524657e-06
3.20472006e-06
3.19629351e-06
3.17907184e-06
3.15207834e-06
3.11427592e-06
3.06458471e-06
3.00196174e-06
2.92537775e-06
2.83392092e-06
2.72689944e-06
2.60381413e-06
2.46455916e-06
2.30948931e-06
2.13960867e-06
1.95671512e-06
1.7635044e-06
1.56362874e-06
1.36162091e-06
1.16265412e-06
9.72128796e-07
7.95139933e-07
6.35929362e-07
4.97412786e-07
3.80937363e-07
2.86287244e-07
2.11894019e-07
1.55156368e-07
1.12922562e-07
8.20055697e-08
5.95938276e-08
4.34214048e-08
3.1767907e-08
2.33707283e-08
1.73191304e-08
1.2958979e-08
9.82301399e-09
7.57892109e-09
5.990049e-09
4.88890862e-09
4.15782817e-09
3.71588484e-09
3.51082588e-09
3.52524169e-09
3.75767965e-09
4.22548087e-09
4.95317474e-09
5.94141052e-09
7.15748396e-09
8.56336978e-09
1.01360088e-08
1.1859778e-08
1.37533457e-08
1.58271856e-08
1.80886882e-08
2.05415988e-08
2.32053455e-08
2.60975688e-08
2.9232005e-08
3.26191619e-08
3.62671122e-08
4.01827201e-08
4.43728293e-08
4.88450903e-08
5.3608667e-08
5.86748759e-08
6.40577133e-08
6.97742649e-08
7.58449954e-08
8.22939104e-08
8.91486037e-08
9.64400264e-08
1.04201303e-07
1.12462559e-07
1.21228451e-07
1.30381664e-07
1.39472807e-07
1.50902995e-07
1.63025235e-07
1.7547213e-07
1.88794642e-07
2.03075422e-07
2.18404424e-07
2.34875786e-07
2.52588588e-07
2.71650008e-07
2.92176134e-07
3.14291889e-07
3.38133747e-07
3.63855029e-07
3.91626447e-07
4.21625322e-07
4.54037694e-07
4.89079061e-07
5.27032253e-07
5.68165493e-07
6.12687957e-07
6.60829459e-07
7.12965524e-07
7.69572651e-07
8.30831459e-07
8.96749291e-07
9.67516905e-07
1.04366055e-06
1.12593392e-06
1.21425306e-06
1.30844459e-06
1.40882766e-06
1.51594024e-06
1.63101898e-06
1.7526072e-06
1.88018308e-06
2.01443421e-06
2.15587943e-06
2.30469418e-06
2.45893784e-06
2.61880336e-06
2.78429398e-06
2.95648019e-06
3.13438709e-06
3.31657451e-06
3.50467496e-06
3.69974544e-06
3.90224559e-06
4.11158092e-06
4.32681477e-06
4.54787628e-06
4.77416273e-06
5.0048527e-06
5.2388213e-06
5.47548304e-06
5.71514366e-06
5.95833096e-06
6.20538877e-06
6.45640822e-06
6.71112149e-06
6.9687699e-06
7.22813424e-06
7.48771782e-06
7.74603346e-06
8.00208514e-06
8.25406934e-06
8.50029389e-06
8.74013634e-06
8.97302569e-06
9.19864751e-06
9.41692717e-06
9.62800739e-06
9.83221525e-06
1.00300141e-05
1.02219328e-05
1.04084692e-05
1.05899633e-05
1.07664443e-05
1.09374702e-05
1.11020099e-05
1.12584473e-05
1.14048084e-05
1.15394705e-05
1.16606187e-05
1.17681961e-05
1.18627685e-05
1.19459144e-05
1.20197125e-05
1.20864423e-05
1.2148302e-05
1.22072001e-05
1.22646055e-05
1.23214043e-05
1.2377665e-05
1.24321234e-05
1.24809966e-05
1.25153867e-05
1.30341854e-12
4.77524733e-12
1.13448331e-11
2.41204116e-11
4.81596172e-11
9.13700576e-11
1.65026118e-10
2.840837e-10
4.66766752e-10
7.35518152e-10
1.11638453e-09
1.64122657e-09
2.34598491e-09
3.27329617e-09
4.46912662e-09
5.98450822e-09
7.87305669e-09
1.01896176e-08
1.29925424e-08
1.63391748e-08
2.02903131e-08
2.49049667e-08
3.02421131e-08
3.63587053e-08
4.33057962e-08
5.11377214e-08
5.98910275e-08
6.96046282e-08
8.03151234e-08
9.20445756e-08
1.04805129e-07
1.18604531e-07
1.33440694e-07
1.49313189e-07
1.66215835e-07
1.84150712e-07
2.03121456e-07
2.23139345e-07
2.4422087e-07
2.66376249e-07
2.89621516e-07
3.13959221e-07
3.39404569e-07
3.6596761e-07
3.93652685e-07
4.22484989e-07
4.52490992e-07
4.83703296e-07
5.1615732e-07
5.49889561e-07
5.84934225e-07
6.21330548e-07
6.5912218e-07
6.98362207e-07
7.39115766e-07
7.81460282e-07
8.2548283e-07
8.71275344e-07
9.18928935e-07
9.68527076e-07
1.0201439e-06
1.07384325e-06
1.12967531e-06
1.1876874e-06
1.2479e-06
1.31032654e-06
1.37496503e-06
1.44178463e-06
1.51072235e-06
1.58168304e-06
1.65452816e-06
1.72907359e-06
1.80509073e-06
1.88228979e-06
1.96035177e-06
2.03888588e-06
2.11749192e-06
2.19573364e-06
2.27316484e-06
2.34932885e-06
2.42378517e-06
2.496103e-06
2.56586613e-06
2.63269143e-06
2.69622748e-06
2.75616622e-06
2.81223179e-06
2.8642003e-06
2.91188885e-06
2.95513908e-06
2.99381328e-06
3.02777617e-06
3.05687971e-06
3.0809401e-06
3.09971535e-06
3.1128871e-06
3.12004537e-06
3.12067035e-06
3.11413455e-06
3.09968072e-06
3.07647255e-06
3.04361232e-06
3.00015914e-06
2.94515007e-06
2.87767318e-06
2.7968414e-06
2.70192338e-06
2.59240557e-06
2.46799633e-06
2.32878662e-06
2.17534248e-06
2.00883294e-06
1.83117868e-06
1.64512143e-06
1.45423245e-06
1.2628116e-06
1.07564256e-06
8.97601408e-07
7.33181028e-07
5.8602757e-07
4.5852604e-07
3.51631869e-07
2.64915571e-07
1.96782713e-07
1.44738047e-07
1.05860807e-07
7.72552958e-08
5.64037264e-08
4.12777684e-08
3.03272692e-08
2.24056473e-08
1.66795364e-08
1.25445685e-08
9.56685868e-09
7.4368648e-09
5.93281412e-09
4.89742617e-09
4.22000716e-09
3.8245956e-09
3.66795139e-09
3.7316821e-09
4.01672e-09
4.5404097e-09
5.32204639e-09
6.3546444e-09
7.6044343e-09
9.03782665e-09
1.06356837e-08
1.23856778e-08
1.43033747e-08
1.64021821e-08
1.86878311e-08
2.11613174e-08
2.38466687e-08
2.67618036e-08
2.99200227e-08
3.33314325e-08
3.70038987e-08
4.09443001e-08
4.51597095e-08
4.96581074e-08
5.44490673e-08
5.95443538e-08
6.49584233e-08
7.07088124e-08
7.68164173e-08
8.3305648e-08
9.02044745e-08
9.75442086e-08
1.05358362e-07
1.13677637e-07
1.22507674e-07
1.31719297e-07
1.4063384e-07
1.52352823e-07
1.64639e-07
1.77167356e-07
1.90578833e-07
2.04964452e-07
2.2040873e-07
2.37004496e-07
2.54850933e-07
2.74055699e-07
2.94735524e-07
3.17015844e-07
3.41033448e-07
3.66942176e-07
3.94913892e-07
4.25126672e-07
4.5776596e-07
4.9304675e-07
5.31249999e-07
5.72652414e-07
6.17458294e-07
6.6589001e-07
7.18328226e-07
7.75257506e-07
8.36872814e-07
9.03160727e-07
9.7430899e-07
1.05084574e-06
1.13350653e-06
1.22227074e-06
1.3169143e-06
1.41772549e-06
1.52528258e-06
1.64081187e-06
1.76284166e-06
1.89081284e-06
2.02551439e-06
2.16741455e-06
2.31663464e-06
2.47128443e-06
2.63147767e-06
2.79730397e-06
2.96979505e-06
3.14799219e-06
3.33022939e-06
3.5186661e-06
3.71389223e-06
3.91634607e-06
4.12557843e-06
4.34066648e-06
4.56154535e-06
4.7876366e-06
5.01810378e-06
5.25186573e-06
5.48836826e-06
5.72791502e-06
5.97101359e-06
6.21796937e-06
6.46883471e-06
6.72331075e-06
6.98062013e-06
7.23953596e-06
7.49856856e-06
7.75624956e-06
8.01164053e-06
8.26289779e-06
8.50836798e-06
8.74746852e-06
8.97964468e-06
9.20458614e-06
9.42222006e-06
9.63268858e-06
9.83631599e-06
1.00335609e-05
1.0224946e-05
1.04109619e-05
1.05919415e-05
1.07679081e-05
1.09384168e-05
1.11024388e-05
1.12583678e-05
1.14042495e-05
1.15382812e-05
1.16592398e-05
1.17665033e-05
1.18608491e-05
1.19438359e-05
1.20175296e-05
1.20841952e-05
1.21460173e-05
1.22048927e-05
1.22622806e-05
1.23190606e-05
1.23752969e-05
1.24297243e-05
1.24785621e-05
1.25129288e-05
5.23263072e-11
1.6124884e-10
3.58723856e-10
6.9925839e-10
1.27576674e-09
2.21313017e-09
3.63489397e-09
5.6466331e-09
8.33153432e-09
1.17671878e-08
1.60375792e-08
2.12435091e-08
2.74797947e-08
3.4833279e-08
4.33526392e-08
5.30673055e-08
6.39673182e-08
7.60376169e-08
8.92664608e-08
1.03639132e-07
1.19144075e-07
1.35748247e-07
1.53414e-07
1.72071164e-07
1.91660786e-07
2.12103154e-07
2.33340513e-07
2.55315202e-07
2.78004288e-07
3.01369951e-07
3.25385556e-07
3.50020402e-07
3.75251216e-07
4.01062956e-07
4.27453862e-07
4.54438017e-07
4.8203671e-07
5.10282987e-07
5.39194262e-07
5.68780746e-07
5.9903622e-07
6.29955043e-07
6.61530259e-07
6.93762739e-07
7.26662477e-07
7.60244648e-07
7.94526835e-07
8.29521188e-07
8.65229741e-07
9.01640871e-07
9.38739245e-07
9.76515118e-07
1.01497169e-06
1.05413284e-06
1.09404051e-06
1.13475177e-06
1.17632893e-06
1.21883179e-06
1.26231442e-06
1.30681995e-06
1.35239271e-06
1.39907018e-06
1.44689822e-06
1.49591271e-06
1.54615194e-06
1.59764603e-06
1.65040014e-06
1.70441279e-06
1.7596572e-06
1.81609219e-06
1.87364518e-06
1.93221767e-06
1.99168273e-06
2.05186169e-06
2.11256904e-06
2.17355098e-06
2.23454555e-06
2.29527434e-06
2.35543981e-06
2.41472666e-06
2.47282071e-06
2.5293997e-06
2.58413592e-06
2.6367062e-06
2.68679661e-06
2.73410252e-06
2.77833116e-06
2.81921063e-06
2.85648751e-06
2.88991722e-06
2.91926249e-06
2.94428219e-06
2.9647241e-06
2.98030629e-06
2.99070246e-06
2.99553323e-06
2.99435211e-06
2.98663064e-06
2.97176271e-06
2.94904299e-06
2.91773443e-06
2.87705816e-06
2.82621673e-06
2.76441831e-06
2.69092958e-06
2.60508518e-06
2.50639683e-06
2.39459783e-06
2.26968605e-06
2.13201077e-06
1.98236725e-06
1.82212799e-06
1.65332766e-06
1.47869136e-06
1.30159669e-06
1.12594941e-06
9.55946222e-07
7.95720379e-07
6.4894951e-07
5.18509818e-07
4.06107042e-07
3.12219826e-07
2.36189342e-07
1.76450334e-07
1.30674187e-07
9.62765693e-08
7.07614859e-08
5.20112598e-08
3.83084562e-08
2.83235512e-08
2.10610712e-08
1.57904285e-08
1.19729005e-08
9.22003387e-09
7.25383518e-09
5.87277062e-09
4.93385686e-09
4.33614202e-09
4.0143704e-09
3.93078932e-09
4.06993745e-09
4.43548759e-09
5.042726e-09
5.90196153e-09
6.99691407e-09
8.29490403e-09
9.76872608e-09
1.14043335e-08
1.31962579e-08
1.51494813e-08
1.72858627e-08
1.96075565e-08
2.21105844e-08
2.48283262e-08
2.77782256e-08
3.09726456e-08
3.44210238e-08
3.81309389e-08
4.21093241e-08
4.63635946e-08
5.09022295e-08
5.57354164e-08
6.08755899e-08
6.63378919e-08
7.21405317e-08
7.83050473e-08
8.48564545e-08
9.18232878e-08
9.92374013e-08
1.07132892e-07
1.15541346e-07
1.24470282e-07
1.33776557e-07
1.4235313e-07
1.55680918e-07
1.67067214e-07
1.79755236e-07
1.93313337e-07
2.07860903e-07
2.23481794e-07
2.40267958e-07
2.5831879e-07
2.77742566e-07
2.98657066e-07
3.2118891e-07
3.45475388e-07
3.71670128e-07
3.99945888e-07
4.30484e-07
4.63471081e-07
4.99117157e-07
5.3769925e-07
5.79502247e-07
6.24737354e-07
6.73633464e-07
7.26539043e-07
7.83931003e-07
8.46050979e-07
9.12922318e-07
9.84741582e-07
1.06186885e-06
1.14503913e-06
1.23438934e-06
1.32980407e-06
1.43142471e-06
1.53961646e-06
1.65566913e-06
1.77824406e-06
1.9069898e-06
2.04256099e-06
2.18505024e-06
2.33468766e-06
2.48986991e-06
2.65079517e-06
2.8172859e-06
2.99011609e-06
3.16855051e-06
3.35144114e-06
3.54024726e-06
3.73553015e-06
3.93783951e-06
4.14680623e-06
4.36170343e-06
4.5824171e-06
4.80822669e-06
5.03829041e-06
5.27168908e-06
5.50795284e-06
5.74733339e-06
5.99026875e-06
6.23703085e-06
6.48763969e-06
6.7417478e-06
6.99853527e-06
7.25676141e-06
7.5149532e-06
7.77167347e-06
8.02607189e-06
8.27621828e-06
8.52055025e-06
8.75853363e-06
8.98963492e-06
9.21355011e-06
9.4302091e-06
9.63975346e-06
9.84250346e-06
1.00389106e-05
1.02294883e-05
1.04147163e-05
1.05949169e-05
1.07701047e-05
1.09398307e-05
1.11030698e-05
1.12582299e-05
1.14033895e-05
1.15367895e-05
1.16571302e-05
1.17639302e-05
1.18579338e-05
1.194068e-05
1.20142155e-05
1.20807838e-05
1.21425486e-05
1.22013889e-05
1.22587496e-05
1.23155004e-05
1.23716993e-05
1.24260791e-05
1.24748629e-05
1.25091904e-05
2.01949387e-09
4.35797198e-09
7.73239411e-09
1.26777801e-08
2.04461343e-08
3.1718736e-08
4.61003231e-08
6.27033811e-08
8.07956151e-08
1.00111002e-07
1.20927143e-07
1.43578496e-07
1.68093544e-07
1.9415339e-07
2.21240013e-07
2.48838413e-07
2.76676491e-07
3.04727526e-07
3.33135136e-07
3.62033912e-07
3.91422256e-07
4.21145882e-07
4.50956155e-07
4.80623598e-07
5.10001651e-07
5.39059123e-07
5.67906834e-07
5.96683591e-07
6.25516646e-07
6.54453769e-07
6.83474023e-07
7.12504481e-07
7.41499102e-07
7.70463349e-07
7.99469426e-07
8.28634914e-07
8.58077246e-07
8.87883939e-07
9.18066261e-07
9.48601735e-07
9.79432445e-07
1.01053937e-06
1.04191243e-06
1.07358704e-06
1.10562804e-06
1.1380675e-06
1.17091346e-06
1.20412562e-06
1.2376277e-06
1.27133146e-06
1.30516706e-06
1.33910334e-06
1.37315123e-06
1.40735952e-06
1.44179173e-06
1.47651165e-06
1.51156221e-06
1.54696536e-06
1.58272916e-06
1.61885484e-06
1.65535903e-06
1.69226626e-06
1.72962205e-06
1.76745822e-06
1.8058209e-06
1.84474901e-06
1.88425908e-06
1.92437842e-06
1.96512089e-06
2.00649768e-06
2.0484991e-06
2.09109509e-06
2.1342324e-06
2.17781245e-06
2.22173551e-06
2.2658446e-06
2.30996899e-06
2.35393538e-06
2.39754601e-06
2.44058477e-06
2.48282138e-06
2.52401036e-06
2.56388882e-06
2.60217664e-06
2.63858817e-06
2.67281649e-06
2.70455473e-06
2.73349499e-06
2.75932742e-06
2.78174034e-06
2.80042124e-06
2.81505267e-06
2.82531061e-06
2.83084972e-06
2.83129672e-06
2.82624898e-06
2.81526119e-06
2.79783072e-06
2.77341035e-06
2.74139899e-06
2.70118502e-06
2.65214652e-06
2.59367116e-06
2.5251779e-06
2.44613962e-06
2.35616871e-06
2.25506017e-06
2.14284097e-06
2.01981158e-06
1.8865839e-06
1.74414552e-06
1.59402304e-06
1.43828913e-06
1.27952924e-06
1.12077254e-06
9.65364578e-07
8.16760479e-07
6.78214222e-07
5.52490541e-07
4.41665443e-07
3.46722749e-07
2.67684715e-07
2.03729878e-07
1.53439548e-07
1.14681001e-07
8.52941468e-08
6.32426347e-08
4.68767672e-08
3.48120132e-08
2.59534787e-08
1.94694191e-08
1.47440584e-08
1.13100423e-08
8.83181254e-09
7.06883723e-09
5.84250005e-09
5.02705734e-09
4.53567702e-09
4.31356204e-09
4.3287467e-09
4.57042047e-09
5.04389609e-09
5.75870728e-09
6.71281315e-09
7.88287549e-09
9.24076006e-09
1.07666515e-08
1.24517817e-08
1.42951894e-08
1.63027967e-08
1.84889507e-08
2.08576388e-08
2.33964468e-08
2.61571068e-08
2.91535587e-08
3.23965699e-08
3.58947662e-08
3.9655213e-08
4.36850724e-08
4.79921909e-08
5.25857094e-08
5.74766211e-08
6.26782379e-08
6.82065959e-08
7.40807813e-08
8.03231696e-08
8.69595699e-08
9.40192599e-08
1.01534811e-07
1.09541095e-07
1.180709e-07
1.27135152e-07
1.36585027e-07
1.44554567e-07
1.59075784e-07
1.70388861e-07
1.83260378e-07
1.97021533e-07
2.11789903e-07
2.27650011e-07
2.44693686e-07
2.63020775e-07
2.82740239e-07
3.03971222e-07
3.26842386e-07
3.51492011e-07
3.78072452e-07
4.06756212e-07
4.37730551e-07
4.71186836e-07
5.07330306e-07
5.46418617e-07
5.88747498e-07
6.34551408e-07
6.84092241e-07
7.3763892e-07
7.95626925e-07
8.58382738e-07
9.26044929e-07
9.98849634e-07
1.07677076e-06
1.16055214e-06
1.25059585e-06
1.34709931e-06
1.4499596e-06
1.55896297e-06
1.67558332e-06
1.79875586e-06
1.92867774e-06
2.06556495e-06
2.2087418e-06
2.35877944e-06
2.51457928e-06
2.67668721e-06
2.84418655e-06
3.01735391e-06
3.1959413e-06
3.37940218e-06
3.56901905e-06
3.76460113e-06
3.96663302e-06
4.17517848e-06
4.38986932e-06
4.61046945e-06
4.83590994e-06
5.06538485e-06
5.29826705e-06
5.53421822e-06
5.77337189e-06
6.01604883e-06
6.26250323e-06
6.51273346e-06
6.76632392e-06
7.02238747e-06
7.27966777e-06
7.53672177e-06
7.79215661e-06
8.04524718e-06
8.29387717e-06
8.53670323e-06
8.77320874e-06
9.00288564e-06
9.22543948e-06
9.44080407e-06
9.6491205e-06
9.85070391e-06
1.00459965e-05
1.02354993e-05
1.04196781e-05
1.05988413e-05
1.07729921e-05
1.09416765e-05
1.11038743e-05
1.12580126e-05
1.14022075e-05
1.15347343e-05
1.16542927e-05
1.17604831e-05
1.18540323e-05
1.19364586e-05
1.2009783e-05
1.20762207e-05
1.21379081e-05
1.21967003e-05
1.22540234e-05
1.23107337e-05
1.23668814e-05
1.24211966e-05
1.24699071e-05
1.25041798e-05
4.12228508e-08
5.86141056e-08
7.66123273e-08
1.04108901e-07
1.50539713e-07
2.02294514e-07
2.44686824e-07
2.75439742e-07
2.99596759e-07
3.23762073e-07
3.54038044e-07
3.90301114e-07
4.29045154e-07
4.6647058e-07
5.00600214e-07
5.31416547e-07
5.60341093e-07
5.89279047e-07
6.19467583e-07
6.50808454e-07
6.82299468e-07
7.12815915e-07
7.41639148e-07
7.68687328e-07
7.94351573e-07
8.19366217e-07
8.44467816e-07
8.70055273e-07
8.96149136e-07
9.22446899e-07
9.485674e-07
9.74238305e-07
9.99433944e-07
1.02434599e-06
1.04931199e-06
1.07466533e-06
1.10059627e-06
1.12710842e-06
1.15405381e-06
1.18126394e-06
1.20860367e-06
1.23606288e-06
1.26368741e-06
1.29159389e-06
1.31991183e-06
1.34866665e-06
1.37779551e-06
1.40715416e-06
1.43657432e-06
1.46591654e-06
1.49510947e-06
1.52415875e-06
1.55312931e-06
1.58211921e-06
1.6112179e-06
1.64048868e-06
1.66994823e-06
1.69958214e-06
1.72936374e-06
1.75927144e-06
1.78931182e-06
1.81951362e-06
1.84992423e-06
1.88057696e-06
1.91150907e-06
1.94276019e-06
1.97435534e-06
2.00633393e-06
2.03872578e-06
2.07156249e-06
2.10485396e-06
2.13858863e-06
2.17273204e-06
2.20720621e-06
2.24193199e-06
2.27677964e-06
2.31160286e-06
2.34626387e-06
2.38060122e-06
2.41443649e-06
2.4475757e-06
2.47980819e-06
2.51090247e-06
2.54060198e-06
2.56863766e-06
2.5947053e-06
2.61849766e-06
2.63969582e-06
2.6579715e-06
2.67299219e-06
2.68442355e-06
2.69192946e-06
2.69517067e-06
2.69379588e-06
2.68743526e-06
2.67570018e-06
2.65817816e-06
2.63440905e-06
2.60391074e-06
2.56617892e-06
2.52069836e-06
2.46696892e-06
2.40451674e-06
2.33290925e-06
2.25175345e-06
2.16084857e-06
2.06019978e-06
1.95002571e-06
1.83079251e-06
1.70323504e-06
1.56838458e-06
1.42781384e-06
1.28353918e-06
1.1379503e-06
9.93742886e-07
8.53809859e-07
7.21072175e-07
5.98182093e-07
4.87318757e-07
3.90112915e-07
3.07079147e-07
2.3801461e-07
1.82078349e-07
1.38068031e-07
1.03927113e-07
7.78357419e-08
5.80629281e-08
4.33008406e-08
3.23590563e-08
2.42850587e-08
1.83512063e-08
1.40185475e-08
1.0863059e-08
8.58723378e-09
6.97749875e-09
5.86976021e-09
5.15180389e-09
4.74818367e-09
4.60925361e-09
4.70743937e-09
5.03465025e-09
5.59550068e-09
6.39247477e-09
7.41541168e-09
8.64039245e-09
1.00440303e-08
1.16112873e-08
1.33364808e-08
1.52205752e-08
1.72700001e-08
1.94966953e-08
2.19040061e-08
2.44739215e-08
2.72701451e-08
3.03051815e-08
3.35885618e-08
3.71281259e-08
4.09307998e-08
4.50038522e-08
4.93554972e-08
5.39954187e-08
5.89352591e-08
6.41890345e-08
6.97734949e-08
7.57084277e-08
8.20168789e-08
8.87252941e-08
9.5863553e-08
1.0346481e-07
1.11564569e-07
1.20196597e-07
1.29375231e-07
1.38966111e-07
1.46250857e-07
1.61813281e-07
1.73192601e-07
1.86202003e-07
2.00134827e-07
2.1508892e-07
2.31149318e-07
2.48408223e-07
2.66966095e-07
2.86932562e-07
3.08427591e-07
3.31581098e-07
3.56532643e-07
3.83434873e-07
4.12459856e-07
4.4379617e-07
4.77638446e-07
5.14192408e-07
5.5370859e-07
5.96482352e-07
6.42756005e-07
6.92801084e-07
7.46880693e-07
8.05400226e-07
8.68723311e-07
9.37001702e-07
1.01051054e-06
1.08911188e-06
1.17349672e-06
1.26421604e-06
1.36148958e-06
1.46517203e-06
1.57490876e-06
1.69218101e-06
1.81597604e-06
1.94661961e-06
2.08432382e-06
2.2281767e-06
2.37878967e-06
2.53518487e-06
2.69795283e-06
2.86606935e-06
3.03967152e-06
3.21862218e-06
3.40250763e-06
3.59252971e-06
3.78829785e-06
3.99026957e-06
4.19864142e-06
4.41317077e-06
4.63356062e-06
4.85869094e-06
5.08777942e-06
5.32030183e-06
5.5559751e-06
5.79489886e-06
6.03734852e-06
6.28354201e-06
6.53343022e-06
6.7865444e-06
7.04196649e-06
7.29843788e-06
7.55453627e-06
7.80890279e-06
8.06093417e-06
8.30826624e-06
8.54987651e-06
8.78517905e-06
9.01369366e-06
9.23513578e-06
9.44944269e-06
9.65675497e-06
9.85738356e-06
1.00517633e-05
1.02403853e-05
1.04237042e-05
1.06020172e-05
1.07753185e-05
1.09431501e-05
1.11044962e-05
1.12577992e-05
1.14012034e-05
1.15330092e-05
1.16519396e-05
1.17576338e-05
1.18508112e-05
1.19329751e-05
1.20061259e-05
1.20724555e-05
1.21340783e-05
1.21928299e-05
1.22501212e-05
1.23067975e-05
1.23629023e-05
1.24171635e-05
1.24658135e-05
1.25000404e-05
4.93984702e-10
1.02218233e-09
1.53783972e-09
2.02860111e-09
2.48273524e-09
2.89398009e-09
3.26031533e-09
3.58338928e-09
3.86690969e-09
4.11634621e-09
4.33677925e-09
4.53245779e-09
4.70757795e-09
4.86600701e-09
5.01059964e-09
5.14351609e-09
5.26675425e-09
5.38209327e-09
5.49075102e-09
5.59368742e-09
5.69188909e-09
5.78614928e-09
5.87698378e-09
5.96484796e-09
6.05026292e-09
6.13360905e-09
6.21512361e-09
6.29502404e-09
6.37344733e-09
6.45058803e-09
6.52658036e-09
6.60145177e-09
6.6749518e-09
6.74678364e-09
6.81622582e-09
6.88168739e-09
6.94039071e-09
6.98497519e-09
7.01979921e-09
7.31353242e-09
4.71702886e-10
9.26990304e-10
1.35291152e-09
1.75152207e-09
2.12439435e-09
2.47252225e-09
2.79639706e-09
3.09634433e-09
3.37260456e-09
3.62611704e-09
3.85832283e-09
4.07063987e-09
4.26452352e-09
4.44191965e-09
4.60482066e-09
4.75493782e-09
4.89375223e-09
5.02283228e-09
5.14358879e-09
5.25713885e-09
5.36442933e-09
5.46641388e-09
5.56389119e-09
5.65746892e-09
5.74766948e-09
5.83503133e-09
5.91994995e-09
6.00274909e-09
6.08370854e-09
6.16304338e-09
6.24091567e-09
6.31749542e-09
6.39270663e-09
6.46635833e-09
6.53799722e-09
6.60661602e-09
6.67004908e-09
6.72537698e-09
6.76870383e-09
6.82610651e-09
4.41554166e-10
8.652496e-10
1.25415219e-09
1.61189104e-09
1.94348406e-09
2.25297018e-09
2.54311806e-09
2.81537076e-09
3.0703859e-09
3.30874688e-09
3.53129249e-09
3.73888198e-09
3.93218111e-09
4.11194415e-09
4.27926631e-09
4.43529991e-09
4.58103062e-09
4.71733935e-09
4.8452643e-09
4.96582716e-09
5.07979404e-09
5.18786183e-09
5.29083242e-09
5.38941684e-09
5.48411916e-09
5.57540367e-09
5.66371682e-09
5.74949961e-09
5.83317044e-09
5.91503629e-09
5.99525576e-09
6.07400462e-09
6.15144292e-09
6.22764013e-09
6.30250116e-09
6.37584851e-09
6.44715411e-09
6.51622329e-09
6.58332399e-09
6.65640488e-09
4.3150978e-10
8.40662757e-10
1.2163443e-09
1.56099601e-09
1.87924199e-09
2.17510693e-09
2.45175595e-09
2.71134982e-09
2.9553447e-09
3.18467986e-09
3.40016583e-09
3.60260591e-09
3.79266815e-09
3.97092515e-09
4.13809136e-09
4.29503583e-09
4.4425612e-09
4.58136738e-09
4.71222901e-09
4.83595523e-09
4.95324234e-09
5.06472537e-09
5.1710672e-09
5.2728795e-09
5.37071026e-09
5.46500258e-09
5.55618298e-09