/*--------------------------------*- C++ -*----------------------------------*\
  =========                 |
  \\      /  F ield         | OpenFOAM: The Open Source CFD Toolbox
   \\    /   O peration     | Website:  https://openfoam.org
    \\  /    A nd           | Version:  6
     \\/     M anipulation  |
\*---------------------------------------------------------------------------*/
FoamFile
{
    version     2.0;
    format      ascii;
    class       volScalarField;
    location    "25000";
    object      nut;
}
// * * * * * * * * * * * * * * * * * * * * * * * * * * * * * * * * * * * * * //

dimensions      [0 2 -1 0 0 0 0];

internalField   nonuniform List<scalar> 
44870
(
0.000752099469
0.000745207056
0.000737545984
0.000730710131
0.00072260297
0.000714843875
0.000705514801
0.000696240213
0.000685343529
0.000674433352
0.000662025925
0.000649673725
0.000636091804
0.000622680144
0.000608383099
0.000594372872
0.000579808643
0.000565619329
0.000551183252
0.000537148189
0.000523130265
0.000509505143
0.000496062422
0.000483030277
0.000470247779
0.000457918709
0.000445870422
0.000434278261
0.00042301351
0.000412128947
0.000401660098
0.000391435099
0.000381746843
0.000372128941
0.00036318653
0.000354142161
0.000345879712
0.000337392981
0.000329685174
0.000321905474
0.000752174088
0.000744986267
0.000735637038
0.000726135164
0.000713688949
0.000701040501
0.000685507323
0.000670059407
0.000652253734
0.000635009387
0.000615896937
0.00059788387
0.000578423571
0.000560435049
0.00054143615
0.000523983311
0.000505916543
0.000489406686
0.000472516448
0.000457155958
0.00044154082
0.000427403826
0.000413068218
0.000400147532
0.000387040792
0.000375269725
0.000363323016
0.000352590376
0.000341722885
0.000331891316
0.000322054322
0.000312990647
0.000304136056
0.000295718357
0.000287798577
0.000279909421
0.000272879609
0.000265455784
0.000259485765
0.000251931175
0.000751704254
0.000734964028
0.000710534641
0.000682859637
0.000650405652
0.000618807415
0.000584115839
0.000552811951
0.000520008823
0.000491064489
0.000461404106
0.000436134934
0.000409854046
0.000388612458
0.000365648313
0.000347627226
0.000328169222
0.00031300444
0.000296463153
0.000283865876
0.000269716962
0.000259381579
0.000247216344
0.000238867133
0.000228369739
0.000221754372
0.00021270991
0.000207589463
0.000199876287
0.000196020883
0.000189592382
0.000186781643
0.000181647409
0.000179668969
0.000175781978
0.000174463282
0.000172119878
0.000171169819
0.000170728534
0.000169469259
0.000696458504
0.000597254902
0.000519013564
0.000454783739
0.000403101019
0.000360865478
0.0003262398
0.000297721842
0.000274054001
0.00025449593
0.000238183104
0.000224693723
0.000213479108
0.000204225035
0.000196668164
0.000190450776
0.000185610241
0.000181649244
0.00017899587
0.00017676641
0.000175591698
0.000175065142
0.000175064195
0.000176054694
0.000177024889
0.000179431142
0.000181250649
0.000185030172
0.000187545542
0.000192682531
0.000195851655
0.000202269181
0.000206047827
0.000213657015
0.000217988554
0.000226660938
0.000231513553
0.000240890741
0.000246625009
0.000257368992
0.000210897206
0.000226188559
0.000240377201
0.000254004091
0.000266517872
0.000278390684
0.000289118828
0.000299144057
0.000308033596
0.000316222901
0.000323330371
0.000329795432
0.000335270035
0.000340196312
0.000344245072
0.000347855252
0.000350708522
0.000353231147
0.000355116558
0.000356763756
0.000357891136
0.000358847942
0.000359400198
0.000359819179
0.00035995323
0.000359918689
0.00035976259
0.000359539252
0.000359047034
0.00035870312
0.000358012963
0.00035753729
0.000356760189
0.000356191652
0.000355390765
0.000354752278
0.000353986561
0.000353260598
0.000352626309
0.000347183108
0.000314655443
0.000306977036
0.000300333202
0.000294190267
0.000288348129
0.000282742958
0.000276913421
0.000271475662
0.000265607467
0.000260435631
0.000254787341
0.000249940722
0.000244799165
0.000240214033
0.000235822182
0.000231496461
0.000227889901
0.000224007961
0.000220989663
0.000217893606
0.000215422795
0.000213204728
0.000211464089
0.000209966191
0.000209607997
0.000209374095
0.000209381381
0.000211016843
0.000212024887
0.00021512786
0.000218831604
0.000223269093
0.00023001516
0.000236740193
0.000246518418
0.000256491274
0.000269582033
0.000283620643
0.000300368079
0.000318828708
0.000339711542
0.000363121195
0.000389422633
0.000418852936
0.000451973847
0.000488666599
0.000528923684
0.000572685025
0.000619838007
0.000670537558
0.000724775259
0.000783019599
0.000845400003
0.000912596722
0.000984815413
0.00106267608
0.00114628079
0.00123584714
0.00133125076
0.00143226252
0.00153870818
0.00164996275
0.00176593572
0.00188548263
0.00200882112
0.00213464263
0.00226381171
0.00239554531
0.00253156564
0.00267185026
0.00281758997
0.00296968847
0.00312648794
0.0032910458
0.00345708039
0.00363002196
0.00380512895
0.00398253812
0.00416102364
0.00434083917
0.00452147102
0.00470226027
0.00488388848
0.00506607189
0.00524966379
0.00543330849
0.00561960927
0.00580594358
0.00599349802
0.00618144988
0.00636967388
0.00656004326
0.00675054587
0.00694102292
0.00713106319
0.00732037665
0.00750844509
0.00769519729
0.00788017207
0.00806383828
0.00824684117
0.00842940626
0.0086111606
0.00879304393
0.00897368387
0.00915367405
0.00933384491
0.00951115567
0.00968786605
0.00986145093
0.0100340303
0.0102064341
0.0103744651
0.0105399261
0.010703812
0.0108661332
0.0110271227
0.0111871143
0.0113465196
0.0115058896
0.011665959
0.0118278461
0.0119929262
0.0121630383
0.0123403433
0.0125264418
0.0127216228
0.0129294915
0.0131418038
0.0133620027
0.0135898234
0.0138225189
0.0140583617
0.0142968815
0.0145371809
0.0147780106
0.0150213348
0.0152668902
0.0155102993
0.0157548442
0.0160005738
0.0162472818
0.0164942739
0.0167397875
0.0169814126
0.0172173709
0.0174470913
0.0176707381
0.0178886747
0.0181012375
0.0183087226
0.0185113989
0.0187093273
0.0189023034
0.0190902708
0.019273761
0.0194534688
0.0196288398
0.0197995275
0.0199654196
0.0201264092
0.0202823814
0.0204332157
0.0205787871
0.0207189717
0.0208536443
0.0209826848
0.0211059796
0.0212234221
0.0213349179
0.0214403876
0.0215398372
0.0216335807
0.0217234607
0.0218064765
0.0218800991
0.0219474964
0.0220090198
0.0220646443
0.0221143475
0.0221580768
0.0221959143
0.0222281968
0.0222551727
0.0222767953
0.0222933977
0.0223059554
0.0223174885
0.0223269067
0.0223372138
0.0223498501
0.0223658817
0.0223979728
0.0224308354
0.0224811294
0.0225221728
0.0225652704
0.022640014
0.0225985172
0.0225743216
0.0225337694
0.0224469734
0.0225612928
0.022233172
0.0221548157
0.0219921376
0.0217885
0.0218960298
0.0215171974
0.0213664743
0.0209347401
0.0206463255
0.0203301139
0.0197393498
0.0193067205
0.0187055616
0.0182688886
0.0175634894
0.0170558919
0.0167817121
0.0164843037
0.0163126729
0.0161742197
0.0160163416
0.0158023959
0.0155618081
0.0152882092
0.0149236036
0.0144715539
0.0139794723
0.013496781
0.0130676903
0.0127283972
0.0124963376
0.0123675754
0.0123245044
0.0123301594
0.012296807
0.0124098294
0.0125571005
0.0126983972
0.0128174042
0.0129019936
0.0129410034
0.0129246844
0.0128459311
0.0127017519
0.0124947765
0.012234549
0.0119383604
0.011631348
0.0113454603
0.0111167638
0.0109805233
0.0109590702
0.0109949423
0.011310327
0.0117058526
0.0121747457
0.0126867099
0.0132037527
0.0136889447
0.0141115108
0.0144496808
0.0146919577
0.0148365791
0.0148908736
0.0148699694
0.0147995589
0.0147224472
0.000244861382
0.000238758194
0.000233391344
0.000228693177
0.000223900905
0.000219974843
0.000215733011
0.00021262677
0.000209089568
0.000206869069
0.000204234762
0.000203004783
0.000201420214
0.000201261735
0.000201416702
0.000201965053
0.00020367347
0.00020535935
0.000208917847
0.000212488168
0.000217458103
0.000223354227
0.000229809325
0.000238244926
0.000246613622
0.000257502487
0.000268271201
0.00028157384
0.00029517239
0.000311270923
0.000328427062
0.000347538661
0.000368493036
0.000390703296
0.000415300132
0.000440871185
0.00046896934
0.000497780725
0.000528899782
0.000560821446
0.000595032889
0.000630709912
0.00066876191
0.000708866748
0.000751268094
0.000795829692
0.000842527585
0.000891448625
0.000942694524
0.00099657606
0.0010532833
0.0011132416
0.00117662103
0.00124387415
0.00131514014
0.00139086477
0.0014711771
0.00155638928
0.00164654537
0.00174171096
0.00184181155
0.00194655674
0.00205580279
0.00216876333
0.00228561145
0.00240517967
0.0025282167
0.00265407762
0.00278417578
0.00291844236
0.00305793342
0.00320334659
0.00335336149
0.00351057003
0.00366962205
0.00383525047
0.00400321585
0.0041737265
0.00434552444
0.00451921123
0.00469368912
0.00486858885
0.00504471881
0.00522166487
0.00540007142
0.00557878589
0.00576052423
0.00594176012
0.00612376001
0.00630802632
0.00649254036
0.00667820687
0.0068644373
0.00705083697
0.00723697913
0.00742255133
0.00760702976
0.00779034327
0.0079719817
0.00815260688
0.00833271379
0.00851245087
0.0086914867
0.00887077201
0.00904876288
0.00922645609
0.00940433256
0.00957925436
0.00975387454
0.00992540931
0.0100969832
0.0102663647
0.0104325239
0.0105966115
0.0107589884
0.0109198608
0.0110794939
0.0112382355
0.0113965111
0.0115548879
0.0117141197
0.0118753381
0.0120399148
0.0122096547
0.0123866535
0.0125724039
0.012767188
0.0129738364
0.0131862868
0.0134051843
0.0136319113
0.0138634429
0.0140980383
0.0143353288
0.0145743741
0.0148140954
0.0150566256
0.0153002295
0.0155426552
0.0157861875
0.0160308042
0.016276342
0.0165220656
0.016766198
0.017006396
0.0172409817
0.0174694357
0.0176919214
0.0179087847
0.0181203454
0.0183268851
0.0185286619
0.0187257232
0.018917852
0.0191049972
0.0192877166
0.0194667165
0.0196413593
0.0198113288
0.0199765234
0.0201368376
0.0202921563
0.0204423599
0.0205873235
0.0207269238
0.0208610361
0.0209895405
0.0211123238
0.0212292796
0.0213403137
0.021445346
0.0215443815
0.0216377399
0.0217273716
0.0218100282
0.0218831883
0.0219502963
0.0220115566
0.0220669389
0.0221164169
0.0221599151
0.0221975267
0.0222296598
0.022256575
0.0222780596
0.0222943653
0.0223067326
0.022318539
0.0223282363
0.0223380697
0.0223507868
0.0223664052
0.0224002019
0.0224333052
0.0224785855
0.0225182988
0.022562717
0.0226475414
0.0226040303
0.0225526549
0.0225273989
0.0224402773
0.0225811178
0.0222356596
0.0221279454
0.0219739268
0.0217760563
0.0219035268
0.0215052613
0.0213351092
0.020910891
0.0206463556
0.0203510871
0.0197354672
0.0192914621
0.0186887036
0.0182640806
0.0175472022
0.0170467525
0.0167775021
0.0164716188
0.0163051408
0.0161761069
0.0160175665
0.0157965818
0.0155536675
0.0152852171
0.0149264123
0.0144769331
0.0139865302
0.0135059987
0.0130785743
0.0127399434
0.0125079918
0.012379089
0.0123357205
0.0123410319
0.012303173
0.0124190104
0.0125660987
0.012706454
0.0128245793
0.0129084861
0.0129470162
0.0129304105
0.0128515579
0.0127074643
0.012500754
0.0122409562
0.0119453323
0.0116389734
0.0113537646
0.0111256979
0.0109899688
0.0109689564
0.0110006052
0.0113209174
0.0117148231
0.0121825437
0.012693345
0.0132091938
0.0136932082
0.0141146706
0.0144518625
0.0146933192
0.0148372857
0.0148910847
0.0148698362
0.0147992166
0.014722038
0.000168071474
0.000168431107
0.000169920577
0.000172403455
0.000175812482
0.000180420206
0.000185764693
0.000192631637
0.000200119955
0.000209392531
0.00021929454
0.000230952225
0.000243361686
0.000257174073
0.000272030449
0.000287810399
0.000304916974
0.000322625098
0.000341667356
0.000361318952
0.000381880766
0.000403627993
0.000425795324
0.000449599318
0.000473288346
0.000498655233
0.000524168095
0.000551118952
0.000578846311
0.000608307522
0.000638635586
0.000670494735
0.000703243742
0.000737079603
0.000771814769
0.000807094331
0.000843611386
0.00088062541
0.000919521241
0.000959252184
0.00100133166
0.00104456656
0.00109017047
0.00113735933
0.0011864078
0.00123729617
0.00129007367
0.00134488695
0.00140185704
0.0014612149
0.00152305936
0.00158763203
0.00165501132
0.00172545791
0.00179907879
0.00187618144
0.00195688546
0.0020414658
0.00212997839
0.00222257402
0.00231913537
0.0024196516
0.00252379473
0.00263144716
0.00274249666
0.00285604759
0.00297301406
0.00309290413
0.00321675314
0.00334447762
0.00347689966
0.00361442768
0.0037561468
0.00390394506
0.0040538384
0.00420942847
0.00436739767
0.00452796672
0.00468998394
0.00485461315
0.00501945861
0.0051852404
0.00535285508
0.00552145842
0.00569143128
0.005862207
0.00603495361
0.0062087645
0.00638333241
0.00655945419
0.0067364196
0.00691441666
0.00709311686
0.00727215803
0.00745118494
0.00762985021
0.0078076424
0.00798449292
0.00815982126
0.00833473104
0.00850931605
0.00868362165
0.00885742867
0.00903167988
0.0092044941
0.00937779317
0.00955112636
0.00972129475
0.00989183108
0.0100605835
0.0102270648
0.0103922387
0.0105551047
0.0107160282
0.0108753385
0.0110333074
0.0111902308
0.0113464815
0.0115025141
0.0116589272
0.0118165102
0.0119764139
0.0121399923
0.0123089743
0.0124853019
0.0126702653
0.0128641165
0.0130683833
0.0132805065
0.0134970167
0.013721317
0.0139503757
0.0141823236
0.0144170213
0.0146534193
0.0148912589
0.0151309713
0.0153712257
0.0156116195
0.015852869
0.0160950963
0.016338122
0.0165811203
0.0168223016
0.0170594774
0.0172911715
0.0175169568
0.0177369901
0.0179515817
0.0181610173
0.0183655487
0.0185654123
0.0187606271
0.0189509494
0.0191363406
0.0193174191
0.0194949207
0.0196680017
0.0198364381
0.020000145
0.020159018
0.0203129428
0.0204618005
0.0206054672
0.020743821
0.0208767373
0.0210040976
0.0211257894
0.0212417063
0.0213517541
0.0214558519
0.0215540023
0.0216465379
0.0217356573
0.0218175397
0.021889673
0.0219561839
0.022016894
0.0220717529
0.0221207086
0.0221636983
0.0222009114
0.0222327865
0.0222593915
0.0222802995
0.0222961653
0.0223087257
0.0223211019
0.0223299712
0.0223377429
0.0223467462
0.0223688132
0.0224054777
0.0224320811
0.0224665957
0.0225098704
0.0225620653
0.0226669018
0.022591205
0.0224862543
0.0225238282
0.0224442752
0.0226339699
0.0221907054
0.0220545478
0.0219655525
0.0217759574
0.0219195594
0.0214244305
0.0212562261
0.0209020252
0.0206697594
0.0203811746
0.0196886405
0.0192669017
0.0186764959
0.0182523286
0.0176359172
0.017070065
0.016771302
0.0164475238
0.0162795664
0.0161649685
0.0160116583
0.0157824776
0.0155306995
0.0152715665
0.0149282185
0.0144875074
0.0140013432
0.013525184
0.0131014134
0.0127644674
0.0125329227
0.012403797
0.0123598348
0.0123644086
0.0123168696
0.0124391189
0.0125857056
0.0127240035
0.0128402398
0.0129226915
0.0129601971
0.0129429758
0.0128639068
0.0127199902
0.0125138356
0.012254938
0.0119604962
0.0116555045
0.0113717188
0.0111449797
0.0110103415
0.010990345
0.011038653
0.0113444482
0.0117343183
0.0121995527
0.0127078657
0.0132211359
0.0137025926
0.0141216576
0.0144567248
0.0146963869
0.0148389082
0.0148916165
0.0148696087
0.014798514
0.0147211397
0.000263845604
0.000277264134
0.000286360216
0.000299862236
0.000315404079
0.000333482999
0.000353044576
0.000374566746
0.000397017199
0.000421066241
0.000445456838
0.000470632441
0.00049562916
0.000521144961
0.000546486345
0.000572245857
0.000598268958
0.000624379954
0.000651048695
0.000677723705
0.000705044657
0.000732244654
0.000760124987
0.000788231195
0.000817048244
0.000847650869
0.000878544373
0.000911406995
0.000945475837
0.000981217016
0.00101800118
0.00105612332
0.00109511487
0.00113517473
0.00117626155
0.00121846027
0.00126221292
0.00130722427
0.00135433044
0.00140266056
0.00145331571
0.00150500325
0.00155890955
0.00161405361
0.00167077512
0.00172908085
0.00178900601
0.001850663
0.00191412507
0.0019795461
0.00204697105
0.00211657171
0.00218838904
0.00226262016
0.00233936845
0.00241883728
0.00250113428
0.00258645834
0.00267484195
0.00276638945
0.00286095909
0.00295863852
0.00305896394
0.0031626496
0.00326843462
0.00337632128
0.00348770485
0.0036017639
0.00371939153
0.0038405759
0.00396595801
0.00409576878
0.0042293853
0.00436811259
0.00450913039
0.00465493978
0.00480318673
0.00495398897
0.00510660487
0.00526132641
0.00541742493
0.00557471589
0.00573347263
0.00589364523
0.00605509637
0.00621773803
0.00638197789
0.00654756946
0.0067141219
0.00688196061
0.00705077801
0.00722061205
0.0073911384
0.00756208334
0.0077332009
0.00790406791
0.00807422986
0.00824360629
0.00841158023
0.00857996131
0.00874802246
0.00891583277
0.00908338569
0.00925152374
0.00941797231
0.00958614483
0.00975371756
0.00991884744
0.0100836175
0.0102470925
0.0104087764
0.0105690509
0.010727513
0.0108843036
0.0110396936
0.0111939747
0.0113474684
0.01150058
0.011653803
0.011807775
0.0119633243
0.0121216104
0.0122839414
0.0124519225
0.0126272744
0.0128110354
0.0130033883
0.0132050138
0.0134144487
0.0136293548
0.0138496094
0.0140751648
0.0143033431
0.0145343893
0.0147677429
0.0150016251
0.0152373255
0.015473951
0.0157110615
0.015948953
0.0161877134
0.0164270764
0.0166660975
0.016903016
0.0171358865
0.0173634888
0.0175854969
0.0178020485
0.0180134046
0.0182198041
0.0184214593
0.0186185764
0.0188111338
0.0189988494
0.019181708
0.0193604239
0.0195357813
0.0197065854
0.0198727992
0.0200343495
0.0201911326
0.0203430346
0.0204899383
0.020631721
0.0207682635
0.020899441
0.0210251376
0.0211452415
0.0212596467
0.0213682586
0.0214709951
0.0215678561
0.0216591915
0.021747614
0.0218276687
0.0218989098
0.0219645963
0.0220245134
0.022078604
0.0221267669
0.022169014
0.0222057324
0.0222373014
0.0222633162
0.0222831796
0.0222986328
0.0223119463
0.0223252507
0.0223317349
0.0223360136
0.0223475142
0.0223731424
0.022415228
0.022427369
0.022448647
0.0224949061
0.0225614759
0.0227138497
0.0225657674
0.0223987203
0.0225065725
0.0224294159
0.022759854
0.022130511
0.021960023
0.0219344479
0.0217222773
0.0220083894
0.0213121949
0.0211203241
0.0208358141
0.0206706351
0.0204949155
0.0196456783
0.0192027498
0.0186004739
0.0182184309
0.0177321952
0.0171004584
0.0167331636
0.0163680743
0.0162279295
0.0161561658
0.0160003111
0.0157414174
0.0154732975
0.0152364056
0.014921897
0.0144946906
0.014014809
0.0135477035
0.0131321913
0.0127993099
0.0125691683
0.0124401936
0.0123957009
0.0123993997
0.0123367155
0.0124698853
0.0126153607
0.0127504833
0.0128639021
0.0129441945
0.0129801745
0.0129620294
0.0128826273
0.0127389608
0.0125336161
0.0122760358
0.0119833257
0.0116803389
0.0113986437
0.0111738628
0.011040845
0.0110225593
0.0110938546
0.0113786698
0.0117635303
0.0122251655
0.0127297832
0.0132391948
0.0137168104
0.0141322742
0.0144641476
0.0147010996
0.0148414281
0.0148924846
0.0148693227
0.0147974935
0.0147197774
0.00036046063
0.000408075441
0.000432682468
0.000474939362
0.000514065623
0.000550707891
0.000584909396
0.000617628729
0.00064856742
0.000678780309
0.000707697622
0.000736857592
0.000765243637
0.000794402499
0.000823104937
0.000853717923
0.000883558721
0.0009137858
0.000945293414
0.000977225068
0.001010223
0.0010437397
0.00107889342
0.00111477848
0.00115279113
0.00119173153
0.00123264513
0.00127514475
0.00131877628
0.00136370099
0.00140945236
0.00145627676
0.00150391401
0.00155269155
0.00160264491
0.00165399896
0.00170693245
0.00176125165
0.00181735618
0.00187452827
0.00193356941
0.00199330524
0.00205491541
0.00211738382
0.00218110784
0.00224608476
0.00231230351
0.0023798425
0.00244875887
0.00251919471
0.0025912018
0.00266493569
0.0027404347
0.0028178661
0.00289730763
0.00297887685
0.00306268122
0.00314883543
0.00323735109
0.00332825781
0.00342147621
0.00351694547
0.00361452543
0.00371417079
0.0038159718
0.00391950482
0.00402559804
0.00413411002
0.00424578141
0.00436060481
0.00447905467
0.00460130434
0.00472690827
0.00485681732
0.00498904678
0.00512524083
0.0052639762
0.00540521646
0.00554852041
0.00569386347
0.00584104879
0.00598984071
0.00614015397
0.00629218107
0.00644540793
0.00660026826
0.0067566719
0.00691442879
0.00707332778
0.00723347489
0.0073946631
0.00755688776
0.0077197494
0.00788312346
0.00804683164
0.00821029228
0.00837318277
0.00853535275
0.00869636505
0.00885866382
0.00902032668
0.00918174436
0.00934320392
0.00950523597
0.00966645601
0.00982818927
0.0099898625
0.0101499929
0.010309313
0.0104675028
0.01062422
0.0107796032
0.0109335026
0.0110860121
0.0112373724
0.011387885
0.0115378945
0.0116878421
0.0118382623
0.0119898275
0.0121433918
0.0123000958
0.0124611624
0.012628031
0.0128021635
0.0129843461
0.0131746792
0.0133733466
0.0135793934
0.0137910202
0.0140075032
0.0142285879
0.0144525506
0.0146790964
0.0149078176
0.0151375276
0.0153687314
0.0156010101
0.0158339683
0.0160676741
0.0163021031
0.016536856
0.0167708868
0.0170025441
0.0172301895
0.0174528613
0.0176703092
0.0178826398
0.0180900558
0.018292744
0.0184908729
0.0186846113
0.0188738879
0.0190583742
0.0192383531
0.0194142035
0.0195866309
0.0197545704
0.0199180148
0.020076878
0.0202310543
0.020380431
0.0205248933
0.0206643221
0.0207985961
0.0209275967
0.0210512089
0.021169322
0.0212818304
0.0213886396
0.0214896674
0.0215849102
0.0216747283
0.0217623577
0.0218397961
0.0219101501
0.0219747882
0.0220336689
0.0220867247
0.02213389
0.0221753137
0.0222113973
0.0222421854
0.0222670827
0.0222861439
0.0223017677
0.0223152146
0.0223258201
0.0223292994
0.0223337833
0.0223490188
0.0223703571
0.02239758
0.0224135256
0.0224521538
0.0224917725
0.0225548108
0.0226368364
0.0225617288
0.022460099
0.0224798633
0.0224472296
0.0226260181
0.0222402873
0.022017497
0.0219106235
0.0217091543
0.0219425187
0.0214689769
0.0211737878
0.0208168527
0.0206180627
0.0205448466
0.019844443
0.0192192908
0.0186009271
0.0182303259
0.0178448683
0.017233135
0.0167381879
0.0163678441
0.0162526929
0.0161951429
0.0160045776
0.0157231278
0.0154751022
0.0152456247
0.014921664
0.014488362
0.0140170564
0.0135629514
0.0131575132
0.0128327314
0.0126088102
0.012483571
0.012440394
0.0124441755
0.0123600193
0.012511188
0.0126544001
0.0127852629
0.0128950687
0.0129726062
0.0130066314
0.0129872983
0.0129074712
0.0127641363
0.0125598499
0.0123039882
0.0120135378
0.0117131694
0.0114342088
0.0112119984
0.0110811172
0.011064865
0.0111500406
0.011422581
0.0118020676
0.0122591327
0.0127589077
0.0132632231
0.013735766
0.0141464753
0.0144741041
0.0147074263
0.0148448294
0.0148936993
0.0148689908
0.0147961546
0.0147179511
0.000770621309
0.000355925421
0.000407951122
0.000446114756
0.000499071512
0.000552687497
0.000604908095
0.000652652665
0.000696934017
0.000739963162
0.000781288053
0.000822389937
0.000862280277
0.000902380244
0.000942071562
0.000981114799
0.00102059244
0.00106005732
0.00110021571
0.00114082982
0.00118252948
0.001224892
0.00126897701
0.0013137598
0.00136062062
0.00140820738
0.00145749179
0.00150780255
0.00155884623
0.00161076509
0.0016633713
0.00171689974
0.00177120064
0.00182658583
0.00188308584
0.00194087769
0.00199997263
0.00206020793
0.00212182153
0.00218427093
0.00224823441
0.00231268429
0.00237876543
0.0024454448
0.0025131379
0.00258179954
0.00265142177
0.00272208284
0.00279386883
0.00286694225
0.00294136982
0.00301728639
0.00309473084
0.00317384444
0.00325467539
0.00333733078
0.00342190286
0.00350846564
0.00359704341
0.00368764316
0.00378019577
0.00387459103
0.00397077346
0.00406854735
0.0041682054
0.00426936128
0.00437272782
0.00447821286
0.00458657072
0.0046977032
0.00481208759
0.00492987719
0.00505066611
0.00517528792
0.00530212341
0.00543240639
0.00556531636
0.0057006256
0.00583803622
0.00597752878
0.00611900695
0.00626228446
0.00640719433
0.00655396348
0.00670189625
0.00685188525
0.00700337149
0.00715619386
0.00731030599
0.00746572717
0.00762226215
0.00777987924
0.00793811542
0.0080970242
0.00825637148
0.00841542145
0.0085740275
0.00873210343
0.00888948108
0.00904760993
0.0092055451
0.00936343309
0.00952140462
0.00967991025
0.00983793979
0.00999619533
0.0101544388
0.0103115019
0.0104677065
0.0106228483
0.0107766667
0.0109292384
0.0110804914
0.0112305247
0.0113795743
0.0115279484
0.0116760053
0.0118242067
0.011973108
0.0121233923
0.0122759114
0.012431767
0.0125920997
0.0127582215
0.012931429
0.0131123649
0.0133010881
0.0134976084
0.013701141
0.0139101639
0.0141238365
0.0143417925
0.0145626599
0.0147860152
0.0150114848
0.0152381173
0.0154661528
0.0156952857
0.015925152
0.0161557211
0.0163868711
0.0166181139
0.0168483839
0.0170761634
0.0173000234
0.0175191415
0.0177332937
0.0179425589
0.0181471
0.0183470687
0.0185426039
0.0187338482
0.0189206927
0.0191027743
0.0192807095
0.0194544453
0.0196245853
0.019790381
0.0199517504
0.0201085972
0.0202608149
0.020408292
0.0205509161
0.020688571
0.0208211325
0.0209484893
0.0210705268
0.0211871348
0.0212982087
0.0214036536
0.0215033885
0.0215974064
0.0216860683
0.0217732242
0.0218487002
0.0219182426
0.0219820835
0.022040179
0.0220924494
0.0221388828
0.0221797381
0.0222153451
0.022245444
0.022269467
0.0222881721
0.0223041327
0.0223173348
0.0223255818
0.0223266617
0.0223326496
0.0223500589
0.0223669536
0.0223825101
0.0223929703
0.022451019
0.022505487
0.02254617
0.0225571828
0.0225074818
0.0225047839
0.0225398717
0.022478274
0.0224393805
0.0221980083
0.0221237096
0.0220418925
0.0217749813
0.0217786995
0.02143208
0.0213381253
0.0210450062
0.0206645518
0.0203967438
0.019840988
0.0193905575
0.0188409444
0.0183107293
0.0178125011
0.0172741214
0.016891961
0.0165326833
0.0163040563
0.0161794593
0.0160209518
0.0157912332
0.0155330242
0.0152617085
0.0149193308
0.0144903805
0.0140224591
0.0135695193
0.0131698815
0.012854094
0.0126378635
0.0125172543
0.0124759652
0.0124805991
0.0123766111
0.0125461708
0.0126863663
0.0128136288
0.0129205392
0.0129958783
0.0130283402
0.0130080606
0.0129279049
0.0127848555
0.0125814466
0.0123269999
0.0120384024
0.0117401726
0.011463437
0.0112433093
0.0111141438
0.0110993622
0.0111901714
0.0114575966
0.0118333759
0.0122867965
0.0127826146
0.0132827608
0.0137511629
0.0141579887
0.0144821446
0.0147125118
0.0148475532
0.0148946525
0.0148686803
0.0147950291
0.0147164404
6.47898626e-06
2.9435716e-06
1.53151771e-06
1.06870923e-06
9.5409461e-07
9.67886255e-07
1.00541561e-06
1.1024582e-06
1.18640217e-06
1.21722e-06
1.24765576e-06
1.32922988e-06
1.40586228e-06
1.42783469e-06
1.44120649e-06
1.4889858e-06
1.54355807e-06
1.55718413e-06
1.56957827e-06
1.61310457e-06
1.64928883e-06
1.65581778e-06
1.66560478e-06
1.70365479e-06
1.73309613e-06
1.73827005e-06
1.74043839e-06
1.7468173e-06
1.76937468e-06
1.81084992e-06
1.83465633e-06
1.84514055e-06
1.86758246e-06
1.89919866e-06
1.92376252e-06
1.96916627e-06
2.04363917e-06
2.25138066e-06
2.47176274e-06
3.73598604e-06
8.25071335e-05
5.60129867e-05
4.47343319e-05
4.38839691e-05
4.29170071e-05
4.20314472e-05
3.96982043e-05
4.05502466e-05
4.25312625e-05
4.19269747e-05
4.01382652e-05
4.05411428e-05
4.38877489e-05
4.43555369e-05
4.32556017e-05
4.29964308e-05
4.55115903e-05
4.57977504e-05
4.50359668e-05
4.53755309e-05
4.73043623e-05
4.7316281e-05
4.66762081e-05
4.71220229e-05
4.88198278e-05
4.89501209e-05
4.86788528e-05
4.83069326e-05
4.81300187e-05
4.94840885e-05
5.06705161e-05
5.07430634e-05
5.07802025e-05
5.16537858e-05
5.1833155e-05
5.18051735e-05
5.14791226e-05
5.14918816e-05
5.18533312e-05
5.2642871e-05
0.000271221036
0.000201575937
0.000168888553
0.000146994805
0.000132813729
0.00012011056
0.000108229075
9.76039241e-05
9.12509675e-05
8.51286183e-05
7.86970544e-05
7.3855032e-05
7.29235143e-05
7.13830068e-05
6.85339367e-05
6.60889645e-05
6.58177996e-05
6.53312579e-05
6.38834155e-05
6.28002148e-05
6.33986117e-05
6.31159104e-05
6.2230007e-05
6.16656101e-05
6.25574688e-05
6.28247022e-05
6.25165367e-05
6.19142392e-05
6.13361058e-05
6.16054716e-05
6.30381451e-05
6.32417201e-05
6.35447019e-05
6.44111984e-05
6.45590776e-05
6.4538105e-05
6.40132418e-05
6.32349364e-05
6.2220777e-05
6.04724436e-05
0.000339698781
0.000309412084
0.000275030534
0.00024321257
0.000215223379
0.000191669804
0.000170607454
0.000150996209
0.000135915212
0.000123164658
0.000110199859
9.94747872e-05
9.26860604e-05
8.71492229e-05
8.09794968e-05
7.56667026e-05
7.24639929e-05
6.96145632e-05
6.63823121e-05
6.42149228e-05
6.28860199e-05
6.14450303e-05
6.00517355e-05
5.90378274e-05
5.84042049e-05
5.83253618e-05
5.79195224e-05
5.71366813e-05
5.64147526e-05
5.61905715e-05
5.66804035e-05
5.68847044e-05
5.79847118e-05
5.92107607e-05
5.95810923e-05
5.92435931e-05
5.9150134e-05
6.07976716e-05
6.26722417e-05
6.59716974e-05
0.000335011458
0.000288512984
0.000244334617
0.000210365007
0.000182329689
0.000162136058
0.000145693128
0.000129493378
0.00011772451
0.000109760181
0.000100507085
9.16732853e-05
8.61133129e-05
8.32056721e-05
8.00699345e-05
7.6321972e-05
7.34597754e-05
7.19343385e-05
6.99718626e-05
6.92950971e-05
6.91733195e-05
6.78513129e-05
6.76836186e-05
6.74825949e-05
6.76276203e-05
6.90433408e-05
6.93944746e-05
6.84068533e-05
6.79839546e-05
6.91297012e-05
6.91246421e-05
7.02319358e-05
7.39983561e-05
7.67715444e-05
7.71958457e-05
7.62635554e-05
7.71731617e-05
8.3166482e-05
8.83647404e-05
9.08055731e-05
0.000239043651
0.000162489751
0.000121209239
0.000101304402
8.78315708e-05
8.13695098e-05
7.45850607e-05
6.84119604e-05
6.3977615e-05
6.43263145e-05
6.24374849e-05
5.87135769e-05
5.67685771e-05
6.09809862e-05
6.16804732e-05
5.98630159e-05
6.02916812e-05
6.17708468e-05
6.13373036e-05
6.38916854e-05
6.57121117e-05
6.51579156e-05
6.68728951e-05
6.81344605e-05
6.97768206e-05
7.27430128e-05
7.35686606e-05
7.27494657e-05
7.34897955e-05
7.55628999e-05
7.5758259e-05
7.81517893e-05
8.3872002e-05
8.6588874e-05
8.59045518e-05
8.427379e-05
8.55093084e-05
9.10726037e-05
8.95854167e-05
8.47571954e-05
6.57742948e-05
3.99355187e-05
3.00521896e-05
2.74552048e-05
2.69103485e-05
2.64698171e-05
2.68823534e-05
2.61732336e-05
2.78357581e-05
3.15615489e-05
3.21353589e-05
3.08338913e-05
3.17940655e-05
3.71391711e-05
3.80766575e-05
3.72071435e-05
3.87638066e-05
4.06476095e-05
4.08982846e-05
4.37864649e-05
4.52328685e-05
4.50562036e-05
4.7009562e-05
4.83800752e-05
5.02921403e-05
5.23320059e-05
5.24469725e-05
5.19055162e-05
5.36316612e-05
5.49877581e-05
5.5269378e-05
5.87054638e-05
6.26140103e-05
6.30635588e-05
6.18949207e-05
6.10276939e-05
6.47804288e-05
6.62871766e-05
6.31926193e-05
6.19060932e-05
5.77274899e-06
2.39036665e-06
1.11223284e-06
6.86108715e-07
5.82510673e-07
5.87384151e-07
6.15215675e-07
6.46925416e-07
7.2521093e-07
7.97604256e-07
8.19242153e-07
8.38177178e-07
9.17770082e-07
1.00358133e-06
1.02281257e-06
1.04059771e-06
1.1017303e-06
1.13798129e-06
1.17432508e-06
1.24315807e-06
1.27178212e-06
1.29733615e-06
1.35875887e-06
1.39311126e-06
1.4456947e-06
1.48462919e-06
1.49615076e-06
1.51830332e-06