/*--------------------------------*- C++ -*----------------------------------*\
  =========                 |
  \\      /  F ield         | OpenFOAM: The Open Source CFD Toolbox
   \\    /   O peration     | Website:  https://openfoam.org
    \\  /    A nd           | Version:  6
     \\/     M anipulation  |
\*---------------------------------------------------------------------------*/
FoamFile
{
    version     2.0;
    format      ascii;
    class       volScalarField;
    location    "25000";
    object      O;
}
// * * * * * * * * * * * * * * * * * * * * * * * * * * * * * * * * * * * * * //

dimensions      [0 0 0 0 0 0 0];

internalField   nonuniform List<scalar> 
44870
(
4.60717144e-56
1.67860192e-55
2.72036878e-55
2.3145463e-55
2.66759608e-55
2.69540986e-55
2.77340411e-55
3.69639448e-55
3.26036818e-55
3.75476742e-55
5.242378e-55
5.7907063e-55
5.03269614e-55
6.05524513e-55
6.494451e-55
6.75882348e-55
5.87015246e-55
6.77642486e-55
6.65873644e-55
8.87535933e-55
9.51084036e-55
1.17875579e-54
3.71513901e-53
6.16037947e-51
1.06886395e-48
1.88165971e-46
3.35775033e-44
6.07108577e-42
1.11105742e-39
2.05701651e-37
3.84630349e-35
7.25693845e-33
1.37742885e-30
2.62459145e-28
4.98917342e-26
9.40406276e-24
1.73132106e-21
3.05200773e-19
4.85142057e-17
6.52879927e-15
7.64861674e-56
1.03845891e-55
1.73390249e-55
1.87668275e-55
2.3629417e-55
3.75589451e-55
4.19614691e-55
3.51605152e-55
3.4711812e-55
4.08758593e-55
5.67587359e-55
5.42237169e-55
6.84807637e-55
6.64029811e-55
5.80404601e-55
5.45748971e-55
5.81940899e-55
4.65821188e-55
6.03518765e-55
7.8474404e-55
8.41361525e-55
1.33174814e-54
8.32303526e-53
1.54207395e-50
2.92003788e-48
5.60177401e-46
1.08641407e-43
2.13322804e-41
4.22992712e-39
8.49066961e-37
1.71928168e-34
3.52433587e-32
7.27786594e-30
1.52145469e-27
3.19532781e-25
6.77700848e-23
1.4310029e-20
3.01577238e-18
5.94148292e-16
1.11399574e-13
1.28569159e-55
3.69966816e-55
4.41603237e-55
3.81847186e-55
3.54247224e-55
4.31646301e-55
4.18113233e-55
3.81362257e-55
4.7337031e-55
4.38060754e-55
5.33365567e-55
7.50269399e-55
7.16507982e-55
7.74670204e-55
7.11440021e-55
7.52278299e-55
8.68348435e-55
6.95649194e-55
7.57584927e-55
6.93914515e-55
8.6251373e-55
3.29860776e-54
5.07567542e-52
1.05467735e-49
2.20460743e-47
4.6431196e-45
9.81263388e-43
2.09135577e-40
4.46956497e-38
9.64825008e-36
2.08660155e-33
4.56668695e-31
9.99922086e-29
2.22175719e-26
4.93465554e-24
1.11537227e-21
2.51667433e-19
5.82472116e-17
1.29347151e-14
2.95086488e-12
1.91398615e-55
2.54465936e-55
2.52309713e-55
4.28201492e-55
4.70655662e-55
4.20780058e-55
2.89130313e-55
2.11421371e-55
5.18640713e-55
3.72863231e-55
7.80062652e-55
1.06056333e-54
7.4428763e-55
6.2902881e-55
9.6605767e-55
1.03458936e-54
9.84281933e-55
1.09599631e-54
1.24022552e-54
1.31062245e-54
1.3910256e-54
4.68355595e-53
1.00730831e-50
2.22384882e-48
4.90234178e-46
1.08081057e-43
2.38130888e-41
5.25359198e-39
1.15896238e-36
2.56421525e-34
5.67455897e-32
1.26135961e-29
2.80426305e-27
6.27174548e-25
1.40276842e-22
3.15453288e-20
7.07433749e-18
1.58850089e-15
3.45056333e-13
7.28676496e-11
4.45019102e-55
3.27227009e-55
1.60532465e-55
1.2295812e-55
5.47552847e-56
3.44329419e-55
3.66644411e-55
4.04427589e-55
7.20453203e-55
7.60102346e-55
7.34890948e-55
6.09878168e-55
6.17249742e-55
5.92784256e-55
6.99881408e-55
5.55129163e-55
6.17899104e-55
5.88342956e-55
6.67697565e-55
6.75511843e-55
4.92949442e-54
9.96653737e-52
2.21208187e-49
4.8860188e-47
1.07433882e-44
2.35314573e-42
5.13698586e-40
1.1180326e-37
2.42747653e-35
5.25888024e-33
1.13729903e-30
2.45569444e-28
5.29602809e-26
1.14086935e-23
2.45570835e-21
5.28176853e-19
1.13542258e-16
2.43944741e-14
5.23876264e-12
1.13047295e-09
2.06474252e-13
7.63433228e-13
1.7749296e-12
3.3876109e-12
5.76745802e-12
9.08284341e-12
1.3487271e-11
1.91256725e-11
2.60970183e-11
3.45106856e-11
4.44070173e-11
5.58613737e-11
6.8858633e-11
8.34323269e-11
9.9545229e-11
1.17148262e-10
1.36204191e-10
1.56586031e-10
1.78268763e-10
2.01073941e-10
2.2492651e-10
2.49655029e-10
2.75108781e-10
3.01126205e-10
3.27527722e-10
3.54142562e-10
3.80677143e-10
4.07069835e-10
4.32908943e-10
4.58151721e-10
4.82447242e-10
5.05574038e-10
5.27311413e-10
5.47303894e-10
5.65421734e-10
5.81315773e-10
5.94903588e-10
6.05924419e-10
6.14331666e-10
6.20018463e-10
6.23030857e-10
6.23467318e-10
6.21527387e-10
6.17474369e-10
6.11777148e-10
6.04862979e-10
5.97279454e-10
5.89632962e-10
5.82571806e-10
5.76783799e-10
5.72989126e-10
5.71964187e-10
5.74527017e-10
5.81544204e-10
5.93850958e-10
6.12203239e-10
6.37162938e-10
6.69098016e-10
7.08185602e-10
7.54548668e-10
8.08451163e-10
8.70480312e-10
9.41759857e-10
1.02399536e-09
1.11978222e-09
1.23251749e-09
1.36710784e-09
1.52984538e-09
1.72932551e-09
1.97595311e-09
2.28261548e-09
2.66418991e-09
3.13702242e-09
3.72097701e-09
4.43508728e-09
5.30714853e-09
6.359963e-09
7.62696317e-09
9.14249996e-09
1.0945888e-08
1.3077965e-08
1.5581191e-08
1.85019129e-08
2.18877725e-08
2.57919438e-08
3.02714531e-08
3.54032619e-08
4.12703641e-08
4.79804295e-08
5.56664404e-08
6.44810375e-08
7.46063525e-08
8.62365145e-08
9.95837726e-08
1.14876819e-07
1.3236336e-07
1.52313383e-07
1.75032929e-07
2.0087546e-07
2.30270519e-07
2.63727347e-07
3.01837396e-07
3.45288277e-07
3.94899508e-07
4.51586661e-07
5.16461153e-07
5.90836584e-07
6.76193292e-07
7.7441614e-07
8.87703356e-07
1.01879081e-06
1.17097976e-06
1.34826318e-06
1.55562894e-06
1.79915426e-06
2.0861152e-06
2.42507128e-06
2.82571691e-06
3.29823298e-06
3.85175041e-06
4.49161385e-06
5.214972e-06
6.00559872e-06
6.83138684e-06
7.65035029e-06
8.42588468e-06
9.14389578e-06
9.82020025e-06
1.04959628e-05
1.12291801e-05
1.20858603e-05
1.31340782e-05
1.44455735e-05
1.60981722e-05
1.81787985e-05
2.07939353e-05
2.40787366e-05
2.82142534e-05
3.34531516e-05
4.01613444e-05
4.89633547e-05
6.07995263e-05
7.71711275e-05
0.000100170962
0.000131560201
0.000171262545
0.000217739395
0.000269116025
0.000323591863
0.000379328702
0.000434697515
0.000488298715
0.000538926802
0.000585462003
0.00062695009
0.000662644881
0.000692013683
0.000714718238
0.000730612447
0.000739738036
0.000742302328
0.00073865708
0.000729275071
0.00071472409
0.000695639756
0.000672698528
0.000646592166
0.000618004589
0.000587592191
0.000555967991
0.000523689817
0.000491252463
0.000459083477
0.000427542693
0.000396918657
0.000367448669
0.00033930482
0.000312608134
0.000287435121
0.000263824217
0.000241782194
0.000221289853
0.000202307462
0.000184780394
0.000168643553
0.000153823292
0.000140239496
0.000127810303
0.000116456835
0.000106101528
9.66590758e-05
8.80652081e-05
8.02369322e-05
7.31244258e-05
6.66655022e-05
6.07896192e-05
5.54357282e-05
5.05681829e-05
4.61594827e-05
4.215736e-05
3.85149518e-05
3.5189116e-05
3.21672507e-05
2.9426569e-05
2.69304767e-05
2.46538469e-05
2.25679268e-05
2.06778423e-05
1.89613254e-05
1.73901852e-05
1.59483916e-05
1.46260502e-05
1.3422284e-05
1.23216631e-05
1.13122894e-05
1.03824058e-05
9.52875414e-06
8.74634329e-06
8.02526289e-06
7.36764641e-06
6.75969422e-06
6.20097556e-06
5.68942438e-06
5.21989666e-06
4.7890847e-06
4.39420076e-06
4.03266968e-06
3.70146736e-06
3.39731599e-06
3.11764816e-06
2.86056775e-06
2.62450275e-06
2.40808466e-06
2.21006837e-06
2.02922785e-06
1.86430053e-06
1.71392852e-06
1.5764988e-06
1.45138311e-06
1.33736823e-06
1.23325541e-06
1.13799565e-06
1.05065635e-06
9.7041619e-07
8.96551018e-07
8.28419781e-07
7.65454755e-07
7.07156697e-07
6.53093816e-07
6.0290364e-07
5.5629655e-07
5.13058266e-07
4.73046429e-07
4.3617569e-07
4.02380548e-07
3.7148187e-07
3.43645151e-07
3.18502972e-07
2.95814216e-07
2.75313301e-07
2.56723198e-07
2.39776453e-07
2.24229864e-07
2.09874573e-07
1.96545438e-07
1.84135161e-07
1.72626282e-07
1.62168224e-07
1.53266027e-07
1.47228003e-07
4.26664073e-12
1.30370759e-11
2.55296221e-11
4.25751025e-11
6.49712278e-11
9.31638408e-11
1.27127116e-10
1.66785937e-10
2.1169596e-10
2.61556649e-10
3.15651376e-10
3.73530043e-10
4.34282706e-10
4.97294497e-10
5.6165668e-10
6.26467356e-10
6.90932634e-10
7.54045996e-10
8.15165634e-10
8.73260808e-10
9.27661772e-10
9.77586717e-10
1.02233489e-09
1.06149001e-09
1.09441435e-09
1.12104139e-09
1.14101174e-09
1.15446157e-09
1.16129548e-09
1.1617625e-09
1.15601747e-09
1.14443915e-09
1.12745913e-09
1.1056835e-09
1.07984843e-09
1.05074511e-09
1.01924124e-09
9.86113007e-10
9.5218675e-10
9.18195974e-10
8.84993487e-10
8.53422127e-10
8.24440439e-10
7.98915687e-10
7.7787095e-10
7.61916551e-10
7.5148846e-10
7.46785229e-10
7.47869762e-10
7.54834282e-10
7.67932261e-10
7.87662198e-10
8.14725691e-10
8.49898566e-10
8.93812014e-10
9.46847271e-10
1.00909544e-09
1.08059492e-09
1.16162891e-09
1.25311004e-09
1.35677014e-09
1.47524349e-09
1.61196492e-09
1.77111739e-09
1.95777431e-09
2.1778206e-09
2.43916154e-09
2.75131784e-09
3.12648687e-09
3.57845779e-09
4.1231799e-09
4.7777588e-09
5.55996586e-09
6.49126844e-09
7.59179035e-09
8.89316861e-09
1.04209059e-08
1.22147055e-08
1.43147344e-08
1.67672753e-08
1.96175206e-08
2.29123803e-08
2.67020246e-08
3.10363972e-08
3.59715588e-08
4.15703262e-08
4.79191613e-08
5.51143049e-08
6.3279694e-08
7.25711241e-08
8.31598524e-08
9.5243923e-08
1.09035704e-07
1.24761309e-07
1.42661506e-07
1.62994883e-07
1.86042972e-07
2.12127275e-07
2.41623267e-07
2.74994957e-07
3.1278634e-07
3.55629407e-07
4.04261099e-07
4.59557079e-07
5.22485767e-07
5.94232976e-07
6.76179764e-07
7.69884934e-07
8.77334526e-07
1.0008332e-06
1.14320906e-06
1.30787483e-06
1.49898584e-06
1.72165897e-06
1.98208048e-06
2.28759614e-06
2.64676323e-06
3.06914126e-06
3.56455111e-06
4.14143469e-06
4.80414333e-06
5.54865479e-06
6.35784296e-06
7.19973234e-06
8.03443735e-06
8.82907608e-06
9.57369994e-06
1.02869677e-05
1.10118232e-05
1.18069981e-05
1.27391962e-05
1.38772873e-05
1.5294896e-05
1.70724671e-05
1.92999923e-05
2.20890563e-05
2.55808894e-05
2.99656585e-05
3.55094022e-05
4.26048775e-05
5.18947751e-05
6.43521187e-05
8.15002973e-05
0.000105391479
0.000137599462
0.000177887481
0.000224694086
0.000276175513
0.00033056561
0.000386061776
0.000441067217
0.000494209852
0.000544315737
0.000590277159
0.000631157368
0.000666232839
0.000694990095
0.000717105984
0.000732447504
0.000741066371
0.000743176512
0.000739133386
0.000729410942
0.000714576015
0.00069526157
0.000672140119
0.000645898602
0.000617215604
0.000586741988
0.000555085309
0.000522798194
0.000490370642
0.000458225905
0.000426720136
0.000396138423
0.0003667159
0.000338622043
0.000311976251
0.000286853722
0.000263291922
0.000241296948
0.000220849096
0.000201908228
0.000184419563
0.000168318183
0.00015353059
0.000139976418
0.000127573609
0.000116243957
0.00010591098
9.64874083e-05
8.7912147e-05
8.00985076e-05
7.29999372e-05
6.65553304e-05
6.06918504e-05
5.53469903e-05
5.04862627e-05
4.60862151e-05
4.20934745e-05
3.8458346e-05
3.51365964e-05
3.21177808e-05
2.93827124e-05
2.6892834e-05
2.46201041e-05
2.25354644e-05
2.06473415e-05
1.89346987e-05
1.73671164e-05
1.5927181e-05
1.46056047e-05
1.34033982e-05
1.23052951e-05
1.12980664e-05
1.03693329e-05
9.51639498e-06
8.73533962e-06
8.01514424e-06
7.35903942e-06
6.75183609e-06
6.19376405e-06
5.68301469e-06
5.2142939e-06
4.78410356e-06
4.38968493e-06
4.02856356e-06
3.69774611e-06
3.39392238e-06
3.11451553e-06
2.85766197e-06
2.62181499e-06
2.40560803e-06
2.20779148e-06
2.02714001e-06
1.86239342e-06
1.71219694e-06
1.5749151e-06
1.44995513e-06
1.33607917e-06
1.23209124e-06
1.13694187e-06
1.04970027e-06
9.69547094e-07
8.95759873e-07
8.27698868e-07
7.64797411e-07
7.065572e-07
6.52547327e-07
6.02406121e-07
5.55844624e-07
5.12649023e-07
4.72677189e-07
4.35843755e-07
4.02082846e-07
3.71208166e-07
3.43409301e-07
3.18290045e-07
2.9562186e-07
2.7513897e-07
2.56564443e-07
2.39631131e-07
2.24096151e-07
2.09750924e-07
1.96430559e-07
1.84028026e-07
1.72526054e-07
1.62074145e-07
1.5317719e-07
1.47142626e-07
1.60729778e-10
4.00836179e-10
6.61938539e-10
9.59841462e-10
1.28963498e-09
1.63865903e-09
1.99222945e-09
2.33713484e-09
2.66132671e-09
2.95662668e-09
3.2161417e-09
3.43557742e-09
3.61114257e-09
3.74154403e-09
3.82679647e-09
3.8688657e-09
3.87099094e-09
3.83700646e-09
3.77112815e-09
3.67723411e-09
3.5592236e-09
3.42119117e-09
3.26738066e-09
3.1024406e-09
2.93083914e-09
2.75692681e-09
2.58413369e-09
2.41506106e-09
2.25128615e-09
2.09422894e-09
1.94521552e-09
1.80583521e-09
1.67778592e-09
1.56273019e-09
1.46182992e-09
1.37539751e-09
1.30280312e-09
1.24274174e-09
1.19410213e-09
1.15626782e-09
1.12969441e-09
1.11533238e-09
1.11450895e-09
1.12772676e-09
1.15529538e-09
1.19556478e-09
1.24632829e-09
1.30551673e-09
1.37220105e-09
1.44715052e-09
1.53264494e-09
1.63181696e-09
1.74764944e-09
1.88214324e-09
2.03576044e-09
2.20773519e-09
2.3971056e-09
2.60430422e-09
2.8322284e-09
3.08664904e-09
3.37547515e-09
3.70793823e-09
4.09333237e-09
4.54138299e-09
5.06184437e-09
5.66562832e-09
6.36755805e-09
7.18395668e-09
8.13398387e-09
9.23637639e-09
1.05098449e-08
1.19715519e-08
1.3638166e-08
1.55327747e-08
1.76789053e-08
2.01206759e-08
2.28957002e-08
2.60633941e-08
2.96813597e-08
3.38126203e-08
3.85123033e-08
4.3834443e-08
4.98326257e-08
5.65586424e-08
6.40732042e-08
7.24546255e-08
8.18124457e-08
9.22830504e-08
1.04032028e-07
1.17259847e-07
1.32186313e-07
1.49049164e-07
1.68093724e-07
1.89573022e-07
2.13751306e-07
2.40908262e-07
2.71349722e-07
3.05432507e-07
3.43586058e-07
3.8635699e-07
4.34367954e-07
4.88347325e-07
5.49147565e-07
6.17771871e-07
6.95309249e-07
7.831085e-07
8.82701775e-07
9.95835072e-07
1.1247017e-06
1.2718434e-06
1.44027967e-06
1.63370731e-06
1.85657947e-06
2.11428199e-06
2.4132231e-06
2.76084828e-06
3.16564929e-06
3.63681456e-06
4.18329066e-06
4.81194015e-06
5.52500127e-06
6.31614276e-06
7.16676901e-06
8.04579537e-06
8.91848426e-06
9.76011926e-06
1.05694703e-05
1.13708352e-05
1.22106416e-05
1.31495015e-05
1.42556419e-05
1.55998482e-05
1.72603673e-05
1.9323673e-05
2.18865929e-05
2.50725345e-05
2.90363817e-05
3.39894783e-05
4.02272147e-05
4.82076979e-05
5.86052935e-05
7.24594379e-05
9.13392748e-05
0.000117159947
0.000151080564
0.000192554703
0.00024000689
0.00029165597
0.000345802905
0.000400739829
0.000454921687
0.000507040381
0.000555992141
0.000600690236
0.000640237336
0.000673959148
0.000701383707
0.000722218652
0.000736359945
0.000743880198
0.00074500711
0.000740103761
0.000729646288
0.000714199194
0.000694389485
0.00067088097
0.000644350034
0.000615463631
0.000584860593
0.000553136606
0.000520833015
0.000488429427
0.000456339783
0.000424912264
0.000394424458
0.000365106891
0.000337123237
0.000310589483
0.000285577995
0.000262124107
0.000240232397
0.000219882136
0.000201032503
0.000183628331
0.000167604681
0.000152888298
0.000139399019
0.000127054907
0.0001157781
0.000105493091
9.61158738e-05
8.75759242e-05
7.9796924e-05
7.27288692e-05
6.63124717e-05
6.04744751e-05
5.51524405e-05
5.03104811e-05
4.59274608e-05
4.19506943e-05
3.83307536e-05
3.50223472e-05
3.20133854e-05
2.92876513e-05
2.68073844e-05
2.45435065e-05
2.24657674e-05
2.05835311e-05
1.8876606e-05
1.73143504e-05
1.58794921e-05
1.45620626e-05
1.33635487e-05
1.22692071e-05
1.12655916e-05
1.03401539e-05
9.48994511e-06
8.71069356e-06
7.99459535e-06
7.33949939e-06
6.7344052e-06
6.17813338e-06
5.66899592e-06
5.2017881e-06
4.77294149e-06
4.37968069e-06
4.0195271e-06
3.68951878e-06
3.38638889e-06
3.10758036e-06
2.85125662e-06
2.61589838e-06
2.40015408e-06
2.20277825e-06
2.0225472e-06
1.85820119e-06
1.70838952e-06
1.5714374e-06
1.44681733e-06
1.33324766e-06
1.22953422e-06
1.13462734e-06
1.04760038e-06
9.67638425e-07
8.9402261e-07
8.2611601e-07
7.63354283e-07
7.05241205e-07
6.5134778e-07
6.01314067e-07
5.54852552e-07
5.11750454e-07
4.71866179e-07
4.35114367e-07
4.01428306e-07
3.7064431e-07
3.42892116e-07
3.1782175e-07
2.95198879e-07
2.74755738e-07
2.56215588e-07
2.39311909e-07
2.23802509e-07
2.09479465e-07
1.96178471e-07
1.83793017e-07
1.72306236e-07
1.61867821e-07
1.52982364e-07
1.46955565e-07
6.46985254e-09
1.13069176e-08
1.47146782e-08
1.71715119e-08
1.88901534e-08
1.98945411e-08
2.01865914e-08
1.98667717e-08
1.90939156e-08
1.80320388e-08
1.68034961e-08
1.54791662e-08
1.41051198e-08
1.27290991e-08
1.13970422e-08
1.01476417e-08
9.00547794e-09
7.97965863e-09
7.06318493e-09
6.24076251e-09
5.50218499e-09
4.84478613e-09
4.27111443e-09
3.78378069e-09
3.38223376e-09
3.0593485e-09
2.80005461e-09
2.58565164e-09
2.40105832e-09
2.24125968e-09
2.10813617e-09
2.00720252e-09
1.94333057e-09
1.91802272e-09
1.92706127e-09
1.96033632e-09
2.00549744e-09
2.05433694e-09
2.10740116e-09
2.17242669e-09
2.26124504e-09
2.38338536e-09
2.54439169e-09
2.74145649e-09
2.96757729e-09
3.20940269e-09
3.45628199e-09
3.7056569e-09
3.9651359e-09
4.24961681e-09
4.57565927e-09
4.95634801e-09
5.39768722e-09
5.89745527e-09
6.44645881e-09
7.03376768e-09
7.65396326e-09
8.31270995e-09
9.02712035e-09
9.82185977e-09
1.07225708e-08
1.17516696e-08
1.29253358e-08
1.42572673e-08
1.57595505e-08
1.74487312e-08
1.93503154e-08
2.14887628e-08
2.38887603e-08
2.65659227e-08
2.95292787e-08
3.27830668e-08
3.633605e-08
4.02191893e-08
4.44764362e-08
4.91933669e-08
5.44493422e-08
6.0350133e-08
6.69872202e-08
7.44436467e-08
8.27839374e-08
9.20546428e-08
1.02294977e-07
1.13551307e-07
1.25889701e-07
1.39424556e-07
1.54320848e-07
1.70790248e-07
1.89083292e-07
2.09482242e-07
2.3228031e-07
2.57772652e-07
2.86243904e-07
3.17976821e-07
3.53261305e-07
3.92401281e-07
4.35737277e-07
4.83685722e-07
5.36777042e-07
5.95698855e-07
6.61201805e-07
7.34183964e-07
8.15691714e-07
9.06932059e-07
1.00919245e-06
1.12404934e-06
1.25329486e-06
1.39898508e-06
1.56360023e-06
1.7500246e-06
1.96160937e-06
2.20241703e-06
2.47731516e-06
2.79205586e-06
3.15329187e-06
3.56846853e-06
4.04582182e-06
4.59379055e-06
5.21980657e-06
5.92822675e-06
6.71841568e-06
7.58138381e-06
8.49771507e-06
9.43910117e-06
1.03798278e-05
1.13072716e-05
1.22324446e-05
1.31865702e-05
1.42206184e-05
1.53985019e-05
1.67911619e-05
1.84724703e-05
2.05292036e-05
2.30576484e-05
2.61650607e-05
2.99949605e-05
3.47236503e-05
4.05971796e-05
4.79807564e-05
5.73804951e-05
6.95458015e-05
8.5613093e-05
0.000107157994
0.000135788366
0.000172048154
0.000215068816
0.000263294909
0.000315034847
0.000368673825
0.000422678306
0.000475544482
0.000526068237
0.000573254582
0.000616029894
0.000653563564
0.000685252732
0.000710685833
0.000729612517
0.000741971965
0.000747865962
0.000747541199
0.000741370934
0.00072983365
0.000713489683
0.000692956668
0.000668885146
0.000641935585
0.00061275754
0.000581971923
0.000550156794
0.000517836772
0.000485476075
0.000453474879
0.000422169562
0.000391827107
0.000362670047
0.000334854498
0.000308491223
0.000283648385
0.000260358142
0.000238622812
0.000218420248
0.000199708785
0.000182432586
0.000166526322
0.000151917176
0.000138526048
0.00012627147
0.000115074903
0.000104861163
9.55504309e-05
8.7068334e-05
7.9343233e-05
7.23210337e-05
6.59439109e-05
6.01433337e-05
5.48589759e-05
5.00486353e-05
4.56892877e-05
4.17317476e-05
3.81345154e-05
3.48505752e-05
3.18596619e-05
2.91450817e-05
2.66751032e-05
2.44251227e-05
2.23617375e-05
2.04901971e-05
1.87891941e-05
1.72323938e-05
1.58061941e-05
1.44973898e-05
1.33049301e-05
1.22144881e-05
1.12151726e-05
1.02954446e-05
9.45050064e-06
8.67564126e-06
7.96294271e-06
7.30954903e-06
6.70779126e-06
6.15461321e-06
5.64781886e-06
5.18262162e-06
4.75576517e-06
4.364388e-06
4.0057822e-06
3.67697759e-06
3.37487162e-06
3.09699284e-06
2.84150899e-06
2.60690955e-06
2.39187075e-06
2.19516825e-06
2.01558229e-06
1.85184866e-06
1.70262e-06
1.56616817e-06
1.44206721e-06
1.32896209e-06
1.22566358e-06
1.13112312e-06
1.04442071e-06
9.64748157e-07
8.9139191e-07
8.23719184e-07
7.61169136e-07
7.03248675e-07
6.49531669e-07
5.99660753e-07
5.53350581e-07
5.10389937e-07
4.70638052e-07
4.34009638e-07
4.00437837e-07
3.69787972e-07
3.421061e-07
3.17111652e-07
2.94557702e-07
2.74174871e-07
2.55686883e-07
2.38828153e-07
2.23357539e-07
2.09068148e-07
1.95796581e-07
1.83437057e-07
1.71973304e-07
1.61555327e-07
1.52687281e-07
1.46672376e-07
2.54648735e-07
2.13382854e-07
1.69212505e-07
1.40504394e-07
1.20684917e-07
1.01329389e-07
8.13515922e-08
6.3444254e-08
4.93348461e-08
3.90395489e-08
3.15005003e-08
2.54040703e-08
2.02289088e-08
1.60596588e-08
1.29681402e-08
1.08485826e-08
9.4613915e-09
8.51842809e-09
7.7045929e-09
6.84814424e-09
6.01710816e-09
5.3457043e-09
4.92051335e-09
4.75844442e-09
4.81130057e-09
4.96969246e-09
5.10140391e-09
5.10879229e-09
5.01504443e-09
4.91748743e-09
4.91088782e-09
5.05045298e-09
5.346997e-09
5.77054441e-09
6.25470448e-09
6.71327041e-09
7.08754497e-09
7.39041397e-09
7.69733081e-09
8.09803794e-09
8.66018613e-09
9.40397454e-09
1.03113926e-08
1.13216417e-08
1.23633024e-08
1.33607066e-08
1.4286154e-08
1.51778047e-08
1.61199365e-08
1.72023137e-08
1.84858986e-08
1.99881385e-08
2.16819445e-08
2.35047955e-08
2.53782212e-08
2.72445756e-08
2.91001025e-08
3.10011845e-08
3.30414743e-08
3.53161511e-08
3.78922668e-08
4.08012152e-08
4.40450086e-08
4.76145911e-08
5.15178982e-08
5.57788149e-08
6.04402518e-08
6.55341399e-08
7.10749665e-08
7.70383554e-08
8.33834679e-08
9.0075422e-08
9.71218594e-08
1.04610409e-07
1.12676075e-07
1.21526696e-07
1.3134898e-07
1.42325469e-07
1.54580358e-07
1.68191006e-07
1.83183463e-07
1.99545737e-07
2.1725942e-07
2.36349031e-07
2.56902325e-07
2.79130971e-07
3.03327811e-07
3.29854408e-07
3.59113687e-07
3.91515161e-07
4.2744581e-07
4.67257311e-07
5.11258294e-07
5.59743729e-07
6.13015148e-07
6.71396541e-07
7.35273114e-07
8.0516297e-07
8.81787992e-07
9.66009526e-07
1.05881599e-06
1.16137374e-06
1.27501525e-06
1.40123716e-06
1.54160391e-06
1.69797386e-06
1.8725451e-06
2.06779536e-06
2.28659364e-06
2.53223652e-06
2.80844528e-06
3.11975427e-06
3.47151162e-06
3.86983531e-06
4.32150563e-06
4.8336595e-06
5.41394184e-06
6.06951052e-06
6.80556354e-06
7.62312406e-06
8.51877805e-06
9.48185041e-06
1.04944079e-05
1.15337853e-05
1.25880561e-05
1.3659609e-05
1.47743277e-05
1.59695724e-05
1.7301978e-05
1.88403952e-05
2.06606644e-05
2.28406799e-05
2.54820538e-05
2.869522e-05
3.2600941e-05
3.73751221e-05
4.3222629e-05
5.04698703e-05
5.95224196e-05
7.09719913e-05
8.56731078e-05
0.000104844027
0.000129938954
0.000162002656
0.000200893014
0.000245534688
0.000294436014
0.000346013783
0.000398786592
0.000451339141
0.000502332286
0.000550656341
0.000595463661
0.000635666868
0.000670537542
0.000699554065
0.00072237782
0.000738821376
0.000748873525
0.000752670156
0.000750480052
0.000742687603
0.000729772727
0.000712289102
0.000690841292
0.000666062012
0.000638590676
0.000609054067
0.000578049768
0.000546132987
0.000513806712
0.00048151531
0.000449641209
0.000418505484
0.000388362195
0.000359422166
0.000331833001
0.000305698429
0.000281081253
0.000258009538
0.000236482658
0.000216476744
0.000197949274
0.000180843535
0.000165093303
0.000150626279
0.000137365523
0.000125230705
0.000114141388
0.00010402149
9.47959193e-05
8.63935638e-05
7.87421393e-05
7.17813487e-05
6.54534703e-05
5.97008481e-05
5.44690299e-05
4.97041228e-05
4.53751349e-05
4.14390108e-05
3.78707767e-05
3.46227947e-05
3.16589482e-05
2.89573719e-05
2.64972166e-05
2.42655069e-05
2.2224421e-05
2.036886e-05
1.86738302e-05
1.7122105e-05
1.57078723e-05
1.4412416e-05
1.32285504e-05
1.21419163e-05
1.11472606e-05
1.02355637e-05
9.39851198e-06
8.62906333e-06
7.91953838e-06
7.26919751e-06
6.67216876e-06
6.12337877e-06
5.61959826e-06
5.15681684e-06
4.73254977e-06
4.34377315e-06
3.98729211e-06
3.66007414e-06
3.35931649e-06
3.08270738e-06
2.82838933e-06
2.59483461e-06
2.3807586e-06
2.18497539e-06
2.0062699e-06
1.84336675e-06
1.6949202e-06
1.55913211e-06
1.43574145e-06
1.32325584e-06
1.22050885e-06
1.12645537e-06
1.04018451e-06
9.6089715e-07
8.87886609e-07
8.20525475e-07
7.58257517e-07
7.00593792e-07
6.47111943e-07
5.97457999e-07
5.5134948e-07
5.08577247e-07
4.69001641e-07
4.32537521e-07
3.99117942e-07
3.68624508e-07
3.41055239e-07
3.16164397e-07
2.93702688e-07
2.73400317e-07
2.54981895e-07
2.38183094e-07
2.22764165e-07
2.08519633e-07
1.9528732e-07
1.82962375e-07
1.71529301e-07
1.61138539e-07
1.52293683e-07
1.46294669e-07
8.074913e-06
1.72023536e-06
9.62736692e-07
8.42801233e-07
7.22715285e-07
4.98302496e-07
2.98278918e-07
1.84274743e-07
1.33771588e-07
1.12523668e-07
9.69994264e-08
7.5655309e-08
5.49930227e-08
4.16334835e-08
3.5378163e-08
3.33811418e-08
3.30580687e-08
3.24252523e-08
2.96829061e-08
2.52624004e-08
2.14532443e-08
1.94217791e-08
1.91746508e-08
2.0280764e-08
2.20133603e-08
2.34802167e-08
2.39035127e-08
2.31159972e-08
2.19421459e-08
2.12607492e-08
2.14738161e-08
2.25829319e-08
2.43798262e-08
2.65002474e-08
2.84749971e-08
2.98507844e-08
3.05269613e-08
3.08892333e-08
3.15066389e-08
3.2785118e-08
3.48551781e-08
3.75885857e-08
4.07213816e-08
4.38819673e-08
4.67397124e-08
4.90545683e-08
5.08970871e-08
5.26148568e-08
5.46242434e-08
5.72105219e-08
6.04506745e-08
6.42387242e-08
6.83398251e-08
7.24541156e-08
7.63072376e-08
7.97941386e-08
8.30424378e-08
8.63497555e-08
9.00430341e-08
9.43515084e-08
9.9352267e-08
1.0501022e-07
1.11228475e-07
1.17924247e-07
1.25101426e-07
1.32813528e-07
1.41134943e-07
1.50080493e-07
1.59601985e-07
1.69556776e-07
1.79801458e-07
1.90258468e-07
2.00999732e-07
2.12283208e-07
2.24445215e-07
2.37893745e-07
2.52948537e-07
2.69827024e-07
2.88618204e-07
3.09313283e-07
3.31815316e-07
3.55989071e-07
3.81728167e-07
4.0904969e-07
4.38117768e-07
4.69316205e-07
5.03131828e-07
5.40119818e-07
5.80845455e-07
6.25824612e-07
6.75496826e-07
7.30217471e-07
7.9027116e-07
8.55920279e-07
9.27449424e-07
1.00519645e-06
1.08958206e-06
1.18126781e-06
1.28114528e-06
1.39026235e-06
1.5098744e-06
1.64140486e-06
1.78644797e-06
1.94675241e-06
2.124079e-06
2.32056686e-06
2.53875729e-06
2.78147393e-06
3.05189268e-06
3.35359414e-06
3.6904898e-06
4.06748542e-06
4.49024e-06
4.96501375e-06
5.49846295e-06
6.09712779e-06
6.76803054e-06
7.51712851e-06
8.34781926e-06
9.25870199e-06
1.02457819e-05
1.12990779e-05
1.24042039e-05
1.35439481e-05
1.47192541e-05
1.59430369e-05
1.72526686e-05
1.86869152e-05
2.03077465e-05
2.21889713e-05
2.44115288e-05
2.70562372e-05
3.02416111e-05
3.40903016e-05
3.87330089e-05
4.43798076e-05
5.12807945e-05
5.97897776e-05
7.03695863e-05
8.36784895e-05
0.000100634175
0.000122446501
0.000150310625
0.000184764171
0.000225325601
0.000270868906
0.000319977848
0.000371163508
0.000423017653
0.000474232081
0.000523574605
0.000570022027
0.000612844416
0.000650934659
0.000683643417
0.00071050771
0.000731243617
0.000745715258
0.000753945169
0.000756093615
0.000752444509
0.00074338905
0.000729406728
0.00071104473
0.000688896375
0.000663579643
0.000635716893
0.000605916649
0.000574757941
0.000542777865
0.000510462353
0.000478240137
0.000446479706
0.000415489849
0.000385515221
0.000356756865
0.00032935588
0.000303410516
0.0002789794
0.000256087463
0.000234731809
0.000214887118
0.000196510153
0.000179543846
0.000163921651
0.000149571339
0.000136416851
0.000124378995
0.000113377496
0.000103335903
9.4180422e-05
8.58414791e-05
7.82483113e-05
7.13390214e-05
6.50554314e-05
5.93419249e-05
5.41483035e-05
4.94177102e-05
4.51172244e-05
4.12044488e-05
3.76585085e-05
3.44340726e-05
3.14897273e-05
2.8803471e-05
2.63561223e-05
2.41373966e-05
2.21100243e-05
2.0266125e-05
1.8579782e-05
1.70351572e-05
1.56288931e-05
1.43415739e-05
1.31644407e-05
1.20832403e-05
1.10935521e-05
1.01871515e-05
9.35510415e-06
8.58994356e-06
7.88396785e-06
7.23676515e-06
6.64305664e-06
6.09735984e-06
5.59611413e-06
5.1355922e-06
4.71344851e-06
4.32661251e-06
3.9717843e-06
3.64592834e-06
3.34634932e-06
3.07080199e-06
2.81744927e-06
2.58478405e-06
2.37154345e-06
2.17655123e-06
1.99859149e-06
1.83638506e-06
1.68858846e-06
1.55333801e-06
1.43055773e-06
1.3185776e-06
1.21628151e-06
1.12262617e-06
1.03670835e-06
9.57736401e-07
8.85009265e-07
8.17903847e-07
7.55867565e-07
6.98414787e-07
6.45126221e-07
5.95650661e-07
5.49707934e-07
5.07090556e-07
4.67659743e-07
4.31330481e-07
3.98035787e-07
3.67662875e-07
3.40191246e-07
3.15386483e-07
2.93000454e-07
2.72763879e-07
2.54402312e-07
2.37652545e-07
2.22275972e-07
2.08068216e-07
1.94868096e-07
1.82571571e-07
1.71163783e-07
1.60795464e-07
1.51969729e-07
1.45983863e-07
0.000582391558
0.000462674959
0.000376965094
0.000312182596
0.000261771145
0.00022220471
0.000191173314
0.000166805685
0.000147717764
0.000132573774
0.000120391688
0.000110532893
0.000102488895
9.58239922e-05
9.02373654e-05
8.55272711e-05
8.15303596e-05
7.81040984e-05
7.51488156e-05
7.25921826e-05
7.0368909e-05
6.842303e-05
6.67147148e-05
6.5212672e-05
6.38868874e-05
6.27117137e-05
6.16682054e-05
6.0739945e-05
5.99136232e-05
5.9177296e-05
5.8520242e-05
5.79332499e-05
5.74107203e-05
5.69476552e-05
5.6541169e-05
5.61924662e-05
5.59080663e-05
5.5733972e-05
5.63930089e-05
8.02478792e-05
0.000612083269
0.000506084021
0.000425842248
0.000363073127
0.000312653347
0.000271376122
0.000237381489
0.000209346179
0.000186281751
0.000167204991
0.000151288507
0.000137958506
0.000126779832
0.000117339186
0.000109300934
0.000102424251
9.65252615e-05
9.14343909e-05
8.70151459e-05
8.31670525e-05
7.98078141e-05
7.68609454e-05
7.42657159e-05
7.19761391e-05
6.99525446e-05
6.81573555e-05
6.65612416e-05
6.51396855e-05
6.38719277e-05
6.27406422e-05
6.17305271e-05
6.08269272e-05
6.00200528e-05
5.93019757e-05
5.8666895e-05
5.81130819e-05
5.7646588e-05
5.7277578e-05
5.71404665e-05
6.01433178e-05
0.000637352096
0.000542579339
0.00046674235
0.000405700478
0.000355737262
0.00031406449
0.000278813096
0.000248820617
0.000223275344
0.000201470382
0.000182784902
0.00016672628
0.000152910164
0.000140997326
0.000130681832
0.000121714187
0.000113898726
0.000107072288
0.000101088596
9.58253598e-05
9.11882866e-05
8.70957606e-05
8.34725825e-05
8.02565434e-05
7.73990578e-05
7.48566406e-05
7.25911435e-05
7.05682435e-05
6.87581712e-05
6.71367998e-05
6.56851363e-05
6.43847113e-05
6.32194312e-05
6.21758692e-05
6.12436475e-05
6.04137841e-05
5.96823561e-05
5.90413705e-05
5.84987589e-05
5.83060841e-05
0.000644754847
0.000557024701
0.000484429048
0.000424688093
0.000375166415
0.000333642661
0.000298393253
0.000268179582
0.000242104219
0.000219503545
0.000199846636
0.000182697348
0.00016770958
0.000154599725
0.000143114931
0.000133029127
0.000124155567
0.000116340128
0.000109445014
0.000103348716
9.79510027e-05
9.31661559e-05
8.89174054e-05
8.51383388e-05
8.17723009e-05
7.87718701e-05
7.60947482e-05
7.37026805e-05