/*--------------------------------*- C++ -*----------------------------------*\
  =========                 |
  \\      /  F ield         | OpenFOAM: The Open Source CFD Toolbox
   \\    /   O peration     | Website:  https://openfoam.org
    \\  /    A nd           | Version:  6
     \\/     M anipulation  |
\*---------------------------------------------------------------------------*/
FoamFile
{
    version     2.0;
    format      ascii;
    class       volScalarField;
    location    "25000";
    object      O2;
}
// * * * * * * * * * * * * * * * * * * * * * * * * * * * * * * * * * * * * * //

dimensions      [0 0 0 0 0 0 0];

internalField   nonuniform List<scalar> 
44870
(
0.1966
0.1966
0.1966
0.1966
0.1966
0.1966
0.1966
0.1966
0.1966
0.1966
0.1966
0.1966
0.1966
0.1966
0.1966
0.1966
0.1966
0.1966
0.1966
0.1966
0.1966
0.1966
0.1966
0.1966
0.1966
0.1966
0.1966
0.1966
0.1966
0.1966
0.1966
0.1966
0.1966
0.1966
0.1966
0.1966
0.1966
0.1966
0.1966
0.1966
0.1966
0.1966
0.1966
0.1966
0.1966
0.1966
0.1966
0.1966
0.1966
0.1966
0.1966
0.1966
0.1966
0.1966
0.1966
0.1966
0.1966
0.1966
0.1966
0.1966
0.1966
0.1966
0.1966
0.1966
0.1966
0.1966
0.1966
0.1966
0.1966
0.1966
0.1966
0.1966
0.1966
0.1966
0.1966
0.1966
0.1966
0.1966
0.1966
0.196599999
0.1966
0.1966
0.1966
0.1966
0.1966
0.1966
0.1966
0.1966
0.1966
0.1966
0.1966
0.1966
0.1966
0.1966
0.1966
0.1966
0.1966
0.1966
0.1966
0.1966
0.1966
0.1966
0.1966
0.1966
0.1966
0.1966
0.1966
0.1966
0.1966
0.1966
0.1966
0.1966
0.1966
0.1966
0.1966
0.1966
0.1966
0.1966
0.1966
0.196599973
0.1966
0.1966
0.1966
0.1966
0.1966
0.1966
0.1966
0.1966
0.1966
0.1966
0.1966
0.1966
0.1966
0.1966
0.1966
0.1966
0.1966
0.1966
0.1966
0.1966
0.1966
0.1966
0.1966
0.1966
0.1966
0.1966
0.1966
0.1966
0.1966
0.1966
0.1966
0.1966
0.1966
0.1966
0.1966
0.1966
0.1966
0.1966
0.196599997
0.196599337
0.1966
0.1966
0.1966
0.1966
0.1966
0.1966
0.1966
0.1966
0.1966
0.1966
0.1966
0.1966
0.1966
0.1966
0.1966
0.1966
0.1966
0.1966
0.1966
0.1966
0.1966
0.1966
0.1966
0.1966
0.1966
0.1966
0.1966
0.1966
0.1966
0.1966
0.1966
0.1966
0.1966
0.1966
0.1966
0.1966
0.1966
0.1966
0.196599952
0.196589742
0.196599998
0.196599992
0.196599979
0.196599955
0.196599914
0.196599846
0.19659974
0.196599581
0.19659935
0.196599024
0.196598575
0.196597966
0.196597157
0.196596096
0.196594721
0.19659296
0.196590724
0.196587916
0.196584405
0.196580059
0.196574698
0.196568132
0.196560125
0.1965504
0.196538636
0.196524437
0.196507409
0.196486948
0.19646256
0.196433388
0.196398708
0.196357534
0.196308746
0.196251261
0.19618352
0.196104233
0.196011427
0.195903491
0.195778093
0.195633121
0.195465824
0.195273397
0.195052695
0.194800325
0.194513205
0.194187968
0.193821442
0.193410468
0.192951858
0.192442315
0.191878536
0.191257112
0.19057484
0.1898286
0.189015826
0.188134394
0.187183062
0.18616131
0.185069484
0.18390857
0.182680052
0.181385835
0.180027847
0.178608238
0.177128493
0.175590155
0.173993602
0.172339329
0.17062692
0.168856841
0.167029704
0.165147324
0.163212879
0.161229309
0.15920222
0.157135079
0.155031031
0.15289474
0.15072938
0.148537081
0.146319746
0.144078885
0.141815342
0.139530045
0.137223783
0.134897859
0.132553039
0.130191196
0.127813974
0.125422971
0.123020127
0.120607082
0.118185746
0.115757806
0.113324668
0.110887349
0.108446479
0.106002154
0.10355402
0.101101088
0.0986418317
0.0961750383
0.093699306
0.0912130108
0.0887147878
0.0862026618
0.0836743874
0.0811278204
0.0785594819
0.0759655305
0.073340806
0.0706792446
0.067973579
0.0652146086
0.0623912984
0.0594905626
0.056497079
0.0533933953
0.0501606453
0.0467804854
0.0432390968
0.0395342979
0.0356858744
0.031746184
0.027804101
0.023974524
0.0203742766
0.0170967259
0.0141971462
0.0116923091
0.00956931686
0.00779676077
0.00633448938
0.00514037832
0.00417424803
0.00340007746
0.002786511
0.0023072087
0.00194053675
0.00166863472
0.00148586972
0.0013860814
0.00136976591
0.00144537854
0.00162507027
0.00191522496
0.00231567204
0.00282539166
0.00344564736
0.00417712907
0.00502250288
0.00598499468
0.00706784986
0.00827422295
0.00960669292
0.0110668865
0.0126551725
0.0143703831
0.0162098333
0.018169441
0.0202437972
0.022426249
0.0247090498
0.0270835393
0.0295403459
0.0320696001
0.0346611492
0.0373047691
0.0399903596
0.0427081302
0.0454487955
0.04820387
0.0509662893
0.0537306597
0.0564785594
0.0592106551
0.0619239726
0.0646124189
0.0672718228
0.0698985938
0.0724897162
0.0750427163
0.0775556271
0.0800268549
0.0824550575
0.0848392774
0.0871791548
0.0894747301
0.0917257367
0.0939318396
0.0960936555
0.0982136472
0.100292695
0.102329009
0.10432227
0.106275827
0.108194968
0.110075647
0.111912191
0.113704607
0.115457089
0.117178385
0.118860113
0.120499554
0.122098219
0.123658997
0.12519375
0.126683207
0.12812666
0.129530819
0.130900795
0.132238638
0.133530906
0.134783079
0.135996092
0.137178696
0.1383263
0.13943309
0.140510633
0.141566683
0.14260416
0.143621774
0.144617334
0.145592303
0.146545222
0.147474071
0.148375784
0.149249822
0.150099759
0.150931033
0.151749614
0.152561603
0.153372509
0.154186254
0.155004697
0.155827887
0.156654885
0.157483561
0.158311811
0.159131823
0.159943655
0.16074351
0.161528087
0.1622947
0.163041283
0.163766435
0.164469501
0.165150709
0.165811343
0.166453928
0.167082366
0.167701926
0.168318926
0.168939941
0.169570556
0.170215452
0.170869665
0.171528043
0.172186609
0.172835694
0.173466425
0.174071343
0.174644993
0.175184014
0.175686745
0.176152333
0.176579091
0.176961263
0.177281912
0.17749649
0.196599961
0.196599859
0.196599679
0.196599376
0.196598885
0.196598126
0.19659701
0.19659542
0.196593222
0.196590244
0.1965863
0.196581142
0.196574518
0.196566094
0.196555519
0.196542383
0.196526207
0.196506499
0.196482621
0.196453995
0.196419872
0.1963795
0.196332066
0.196276573
0.196212197
0.196137693
0.196052159
0.195954248
0.195842827
0.195716451
0.195574028
0.195414218
0.195235965
0.195038164
0.194819767
0.19457987
0.194317343
0.194031391
0.193720713
0.193384522
0.193021441
0.192630736
0.192211263
0.191762113
0.191283044
0.190773094
0.190231442
0.189657044
0.189048627
0.188404688
0.187723566
0.187003407
0.186242279
0.185438104
0.184588776
0.183692099
0.182745989
0.181748463
0.180697855
0.179592825
0.178432495
0.17721637
0.175944342
0.174616508
0.173232943
0.171793977
0.170299291
0.168748784
0.167141975
0.165479056
0.163760449
0.161987548
0.160162725
0.15828842
0.156368917
0.154407327
0.152406217
0.150369589
0.148300347
0.146200435
0.144071931
0.141916309
0.139734525
0.137527702
0.135296886
0.13304342
0.130768379
0.128473564
0.126160752
0.123831515
0.121487877
0.119131671
0.116764719
0.114388701
0.112005019
0.109614719
0.107218471
0.104816428
0.102408295
0.0999931096
0.097569486
0.0951363476
0.0926923749
0.0902360234
0.0877660024
0.0852803179
0.0827768428
0.0802534296
0.0777065988
0.0751324784
0.0725260519
0.0698812686
0.0671907625
0.064445452
0.0616344659
0.0587449386
0.0557619145
0.0526685348
0.0494468701
0.0460800005
0.0425561173
0.0388756026
0.0350609513
0.0311664229
0.0272807089
0.0235158042
0.0199836568
0.016772537
0.0139338155
0.0114822039
0.00940424003
0.0076689388
0.00623712186
0.00506779851
0.00412184833
0.00336424293
0.00276440406
0.00229670476
0.00194015836
0.00167858631
0.00150573429
0.00141605235
0.00141054935
0.00149821937
0.00169043182
0.00199270341
0.00240459964
0.00292520679
0.0035558436
0.00429733541
0.00515229481
0.00612387267
0.0072152292
0.0084294805
0.00976914395
0.0112357858
0.0128297042
0.0145496632
0.0163929379
0.018355438
0.0204317604
0.0226152771
0.0248982821
0.0272721686
0.029727629
0.0322548656
0.0348438017
0.0374842912
0.0401663116
0.0428801474
0.0456165836
0.0483671982
0.0511250167
0.0538851607
0.0566278167
0.0593548946
0.0620634606
0.064747198
0.067401936
0.070024122
0.0726107577
0.075159386
0.0776680619
0.0801351999
0.0825594357
0.0849397995
0.0872759793
0.0895680656
0.0918157089
0.0940184414
0.096176963
0.0982938793
0.100370264
0.102403725
0.104393761
0.106344386
0.108261354
0.110140302
0.111974306
0.113763823
0.115514182
0.117234237
0.118914961
0.120552112
0.12214819
0.123707598
0.1252421
0.126730641
0.128171771
0.129574127
0.130943561
0.132281307
0.133572783
0.134823198
0.136034917
0.13721711
0.138364546
0.139470545
0.140547171
0.141602068
0.142638695
0.143655482
0.144649898
0.145623697
0.146575725
0.147503896
0.148405037
0.14927862
0.150128321
0.150959581
0.151778255
0.152590318
0.153401213
0.154214827
0.155032985
0.155855728
0.156682196
0.157510299
0.158337734
0.159156816
0.159967752
0.160766762
0.161550543
0.16231643
0.163062373
0.163786979
0.164489597
0.16517045
0.165830819
0.166473214
0.167101517
0.167720971
0.168337859
0.168958714
0.169589092
0.170233859
0.170887079
0.171544917
0.17220273
0.172850989
0.17348088
0.174084986
0.174657882
0.175196227
0.175698367
0.176163452
0.176589791
0.176971623
0.177292015
0.177506402
0.196598521
0.196595363
0.196590574
0.196583163
0.196572266
0.196557053
0.196536627
0.196509962
0.196476021
0.196433629
0.196381699
0.196319024
0.196244567
0.196157151
0.19605577
0.195939354
0.195806929
0.195657684
0.195490785
0.195305664
0.195101692
0.19487842
0.194635425
0.194372309
0.194088865
0.193784581
0.193459624
0.193113924
0.192747357
0.192360316
0.191953431
0.191527316
0.191082769
0.190620324
0.190140571
0.189643688
0.189129728
0.188598504
0.188049588
0.18748286
0.186897886
0.186294789
0.18567316
0.185032769
0.184373977
0.18369621
0.18299908
0.182282052
0.181544498
0.180785682
0.180004844
0.179200982
0.178372942
0.17751931
0.176638432
0.175728399
0.174787156
0.173812541
0.172802436
0.171754856
0.170668029
0.16954034
0.168370485
0.167156991
0.165898895
0.16459519
0.163244439
0.161845648
0.160397811
0.158900385
0.157353136
0.155756513
0.15411154
0.152419552
0.150682836
0.148903466
0.147082894
0.145223802
0.143328238
0.14139775
0.139433967
0.13743816
0.135411397
0.133354814
0.131269646
0.129157162
0.127018802
0.12485606
0.122670799
0.120464816
0.118239968
0.115998108
0.113741024
0.111470325
0.109187341
0.10689312
0.10458836
0.102273272
0.0999476213
0.0976104777
0.0952607673
0.0928976027
0.0905197944
0.0881259495
0.0857148778
0.0832845988
0.0808331845
0.0783583936
0.0758568591
0.0733246321
0.0707568957
0.068147537
0.0654892399
0.0627731596
0.0599887581
0.0571237184
0.0541639653
0.0510940347
0.0478981511
0.0445625944
0.0410799475
0.0374559993
0.0337186674
0.029925583
0.0261642364
0.0225399024
0.0191541571
0.0160848179
0.0133755142
0.0110368748
0.00905449489
0.00739835391
0.00603137485
0.00491496364
0.00401220504
0.00329018844
0.00271993811
0.00227737609
0.00194285391
0.00170443685
0.00155355149
0.00148609124
0.00150488459
0.00161920322
0.00183876567
0.00216729791
0.00260404144
0.00314829541
0.00380143531
0.00456468889
0.00544043604
0.00643168803
0.00754141656
0.00877267028
0.0101278524
0.0116083844
0.0132144039
0.01494454
0.0167959811
0.0187646199
0.0208450688
0.0230307556
0.0253140633
0.0276865025
0.0301389051
0.0326616291
0.0352447632
0.0378783305
0.0405524769
0.0432576496
0.0459847865
0.048725604
0.0514733239
0.0542242823
0.0569553769
0.0596714545
0.0623695812
0.0650429785
0.0676874845
0.070299618
0.0728764241
0.0754154744
0.0779148516
0.0803729949
0.0827885422
0.0851605099
0.0874885853
0.0897728852
0.0920130546
0.0942085583
0.0963601742
0.0984701276
0.100540057
0.102567274
0.104551086
0.10649572
0.108406982
0.110280907
0.112110045
0.113895013
0.115640934
0.117356363
0.11903342
0.120667079
0.122259635
0.123815793
0.125347243
0.126832736
0.128270764
0.129670953
0.13103835
0.132373862
0.133663348
0.134911603
0.136121566
0.137302026
0.1384479
0.139551215
0.140627185
0.141680568
0.142714849
0.143729297
0.144721461
0.145693122
0.146643243
0.147569665
0.148469408
0.14934206
0.150191282
0.151022436
0.15184121
0.152653392
0.153464256
0.154277572
0.155095088
0.155916831
0.156742122
0.157569049
0.158394622
0.159211672
0.160020661
0.160817824
0.161599862
0.162364159
0.1631087
0.16383211
0.164533743
0.16521382
0.165873602
0.166515575
0.167143579
0.167762796
0.168379434
0.168999932
0.169629738
0.170275092
0.170925174
0.171581947
0.172238122
0.172884571
0.17351262
0.174114947
0.174686192
0.175223056
0.175723904
0.176187886
0.176613308
0.176994396
0.177314223
0.177528217
0.196540584
0.196452705
0.196336199
0.196188847
0.196010623
0.195801041
0.195560052
0.195287584
0.19498442
0.194651466
0.194290394
0.193902773
0.193490877
0.193056231
0.192601086
0.19212683
0.191635852
0.191130087
0.190611191
0.190080878
0.189540133
0.188990137
0.188431087
0.187863788
0.187287864
0.186703768
0.186111674
0.185512134
0.184904907
0.184290672
0.183669682
0.183042046
0.182407519
0.181765535
0.181115372
0.180456216
0.179787462
0.179108492
0.178419084
0.177719362
0.177009459
0.176289773
0.175560326
0.174821212
0.174073206
0.173316211
0.172550301
0.17177534
0.170990982
0.170196778
0.169392085
0.168576002
0.167747456
0.166905055
0.166047233
0.165172163
0.164277897
0.163362393
0.162423632
0.161459775
0.160469005
0.159449687
0.158400161
0.157318806
0.156204028
0.155054175
0.153867391
0.15264207
0.151376635
0.150069836
0.14872068
0.147328627
0.145893449
0.144415304
0.142894795
0.141332778
0.139729494
0.138086283
0.136404171
0.134684177
0.132926982
0.131133556
0.129304931
0.12744198
0.125545924
0.123617807
0.121659089
0.11967125
0.117655939
0.1156149
0.113549841
0.111462474
0.109354462
0.107227243
0.105081992
0.1029197
0.100741031
0.0985461891
0.0963349479
0.0941064739
0.0918600655
0.0895949627
0.0873101164
0.0850043223
0.0826764009
0.0803246329
0.0779471173
0.0755414485
0.0731044977
0.0706322766
0.0681199732
0.065561672
0.0629502273
0.0602771517
0.0575325188
0.0547050081
0.0517820823
0.0487506297
0.0455983765
0.0423165945
0.0389043523
0.0353749082
0.0317629029
0.0281289986
0.0245569966
0.0211414293
0.0179692098
0.0151042436
0.0125803142
0.010403096
0.00855729537
0.00701446936
0.00574063749
0.00470060316
0.00386048247
0.00319043422
0.00266364862
0.00225837436
0.00195981703
0.00175541748
0.00163754886
0.00160470661
0.00166125526
0.00181622268
0.00207659351
0.00244403769
0.00291764973
0.00349702788
0.00418349836
0.00497909788
0.00588560832
0.0069058971
0.00804264096
0.00929883483
0.0106767605
0.0121775936
0.0138012183
0.0155460776
0.017409248
0.0193865982
0.0214727692
0.0236612758
0.0259446365
0.0283145386
0.0307620223
0.0332776772
0.0358518382
0.0384747793
0.0411368957
0.043828876
0.0465418841
0.0492678387
0.0520002314
0.0547375886
0.0574460816
0.0601505257
0.0628327777
0.0654905099
0.0681195499
0.070716498
0.0732784621
0.0758030477
0.0782883623
0.0807328947
0.083135333
0.0854946647
0.0878104764
0.0900828751
0.092311689
0.0944964234
0.0966374346
0.0987369153
0.100796636
0.102814425
0.104789762
0.106725579
0.108627223
0.110492509
0.112315045
0.114095259
0.115834284
0.117540899
0.119210908
0.120840911
0.122430528
0.123981145
0.125505693
0.126985304
0.128420743
0.129819545
0.131182823
0.132513134
0.133799093
0.135045981
0.136254405
0.137431352
0.138573563
0.139676294
0.14075041
0.141800471
0.142830815
0.143841204
0.144830124
0.145799075
0.14674637
0.147669874
0.148567297
0.149438536
0.150287044
0.151117917
0.151936691
0.152748966
0.153559755
0.154372595
0.155189104
0.15600931
0.156832789
0.157658106
0.158480647
0.15929469
0.160100773
0.160895162
0.161674576
0.162436477
0.163178902
0.163900506
0.16460065
0.165279548
0.165938438
0.166579765
0.167207305
0.167826152
0.168442398
0.16906234
0.169691184
0.170333475
0.170983114
0.171638027
0.172291713
0.172935432
0.173560703
0.174160348
0.174729107
0.175263737
0.175762634
0.176224953
0.17664899
0.177028958
0.177347929
0.177561348
0.19429302
0.193013129
0.191867734
0.190802234
0.189775441
0.188772661
0.187789835
0.18683062
0.185900374
0.18500244
0.184137284
0.183303701
0.18249988
0.181721131
0.18096435
0.180227296
0.179507032
0.178801119
0.178107271
0.177423232
0.176745939
0.17607283
0.175401706
0.174731424
0.174060747
0.173390754
0.172721436
0.172053009
0.171385885
0.170719617
0.17005351
0.169386972
0.168718935
0.168048109
0.167373535
0.166694596
0.166011186
0.165323075
0.164630596
0.163934137
0.163234167
0.162531047
0.161824899
0.161116003
0.160405389
0.159693204
0.158979528
0.158264011
0.157546022
0.156824732
0.156099157
0.155368052
0.154630106
0.153883714
0.153127295
0.152359017
0.151577114
0.150779821
0.149965513
0.149132883
0.148280523
0.147407343
0.146511827
0.145593036
0.144648995
0.143678077
0.142678618
0.141648751
0.140586502
0.13949022
0.138358258
0.137189291
0.135982153
0.134736059
0.133450457
0.13212511
0.130759227
0.129353112
0.127906941
0.126420894
0.124895091
0.123329931
0.121726056
0.120084089
0.118405047
0.116689605
0.114939108
0.113154917
0.111338381
0.10949099
0.107614213
0.105709529
0.103778354
0.10182187
0.0998410461
0.0978367464
0.0958095553
0.0937595269
0.0916865727
0.0895899557
0.0874692617
0.0853237997
0.0831526927
0.0809549185
0.0787292756
0.0764744147
0.0741883331
0.0718685322
0.0695120046
0.0671148524
0.0646724047
0.0621790046
0.0596279093
0.0570112764
0.05432023
0.0515451041
0.0486757771
0.0457026747
0.0426185175
0.0394212801
0.0361180184
0.0327302514
0.0292986786
0.0258845352
0.0225641235
0.0194175199
0.0165143756
0.0139033491
0.0116080199
0.00962936259
0.00795168957
0.00654871347
0.0053904827
0.00444590386
0.00368455816
0.00308059103
0.00260952543
0.00225617203
0.00200499874
0.00184540951
0.00177258686
0.00178762795
0.00189591254
0.00210496574
0.00241831307
0.00283605626
0.00335741413
0.00398234935
0.00471234456
0.00554941987
0.00649553798
0.00755307982
0.00872425429
0.010012204
0.0114190196
0.012945509
0.0145912803
0.0163544645
0.0182320754
0.020219944
0.0223127575
0.0245041503
0.0267868236
0.0291526974
0.0315930847
0.0340988763
0.0366607259
0.0392692326
0.0419151141
0.0445893703
0.0472834573
0.0499895488
0.05270142
0.0554213256
0.0581035831
0.0607880715
0.0634493356
0.0660862285
0.0686947115
0.0712714858
0.0738137433
0.0763191257
0.0787857506
0.0812121739
0.083597201
0.0859397982
0.0882393192
0.0904957733
0.0927093885
0.0948799265
0.0970072439
0.0990925265
0.101138096
0.103143176
0.105108075
0.10703259
0.108920595
0.110773345
0.112587576
0.114363256
0.116093164
0.117786483
0.119445802
0.121072112
0.122659962
0.124202711
0.125716237
0.127186891
0.128620574
0.130018982
0.131375859
0.132697881
0.133978677
0.135225383
0.136432616
0.137604117
0.138740472
0.139840759
0.140914311
0.141961257
0.142985964
0.143990673
0.144975546
0.14594141
0.146884991
0.14780441
0.148698617
0.149567989
0.150415511
0.151245844
0.152064421
0.152876673
0.153687261
0.154499367
0.155314445
0.156132538
0.156953512
0.15777702
0.158594991
0.159405231
0.160207524
0.160998251
0.161774193
0.16253292
0.163272541
0.163991747
0.16468991
0.165367234
0.166024928
0.16666538
0.167292284
0.167910616
0.168526316
0.169145498
0.169773098
0.170412669
0.171060547
0.171712769
0.172363129
0.173003226
0.173624819
0.174220915
0.174786382
0.175318055
0.175814366
0.176274481
0.176696684
0.177075165
0.177392999
0.177605667
0.141918083
0.153488015
0.159303371
0.162466865
0.164252721
0.165158625
0.165545814
0.165662533
0.165640011
0.165537139
0.165368249
0.165146523
0.16488032
0.16457512
0.16424114
0.163889517
0.163523397
0.163143007
0.162750332
0.162346292
0.161928029
0.161495292
0.161048683
0.160589633
0.16011848
0.159637931
0.159149866
0.15865534
0.15815457
0.157647217
0.157133485
0.156613718
0.156087004
0.15555217
0.155008773
0.154457227
0.153898574
0.153333598
0.152763533
0.152189451
0.151612152
0.15103207
0.150449232
0.149864158
0.149277974
0.148690818
0.148102564
0.147512643
0.146920182
0.146324185
0.145723495
0.145116641
0.144502129
0.14387819
0.143243381
0.142595945
0.141934491
0.141257702
0.140564512
0.139854195
0.139125807
0.138378745
0.1376118
0.136824427
0.136014957
0.135181927
0.134323703
0.133438546
0.132524329
0.131579346
0.130601585
0.129589498
0.12854158
0.127456703
0.126333924
0.12517246
0.123971044
0.122729587
0.121447822
0.120125364
0.118762006
0.117357815
0.115913127
0.114428357
0.112904269
0.111341354
0.109740799
0.108103733
0.106431277
0.104724684
0.102985183
0.101214038
0.0994124124
0.0975813225
0.0957215749
0.093833852
0.0919187316
0.0899762484
0.0880059644
0.0860078108
0.0839811912
0.0819255155
0.0798400202
0.0777237856
0.0755756763
0.0733944237
0.0711780827
0.0689241369
0.0666296205
0.0642907796
0.06190319
0.0594615061
0.0569594817
0.0543900146
0.0517453651
0.0490175695
0.0461988138
0.0432827287
0.0402662443
0.0371525298
0.0339540372
0.0306969694
0.0274240821
0.0241942582
0.0210761443
0.0181387532
0.0154401193
0.0130193346
0.0108940157
0.00906275052
0.00751013952
0.00621154259
0.00514031103
0.00426827213
0.00356723449
0.00301472467
0.00259000539
0.0022784149
0.00206586948
0.00194372367
0.00190922931
0.00196523039
0.00211683862
0.00236943484
0.00272460125
0.00318199275
0.00374111191
0.00440218338
0.0051665943
0.00603639799
0.00701353762
0.0081001191
0.0092978071
0.0106102748
0.0120393344
0.013585457
0.0152479595
0.0170248632
0.0189130943
0.0209084669
0.0230057152
0.0251985763
0.0274799022
0.0298418012
0.0322758049
0.0347730433
0.0373244229
0.0399207996
0.0425531461
0.0452127074
0.0478911692
0.0505809019
0.0532758091
0.0559822087
0.0586428579
0.0613104079
0.0639545518
0.0665743911
0.0691660638
0.0717263444
0.0742524893
0.0767421833
0.0791935594
0.0816051907
0.0839759328
0.0863047851
0.0885910375
0.0908345965
0.0930357409
0.0951943953
0.097310358
0.0993844296
0.10141889
0.10341342
0.105368596
0.107283895
0.109162129
0.111005801
0.112812083
0.1145814
0.116304385
0.117989182
0.119641553
0.121262539
0.122845857
0.124383184
0.125890421
0.127355241
0.128784676
0.130180063
0.13153295
0.132850606
0.134127882
0.135372008
0.136576795
0.137745078
0.138878291
0.139976329
0.141047932
0.142092101
0.143113161
0.144114114
0.145095739
0.146058574
0.146999127
0.147915622
0.14880745
0.14967522
0.150521787
0.151351628
0.152170003
0.152982113
0.153792345
0.154603677
0.155417461
0.156233734
0.157052491
0.157874937
0.158688395
0.159495875
0.160295145
0.161082899
0.161856013
0.162612153
0.163349485
0.164066731
0.164763271
0.1654393
0.166096001
0.166735721
0.167362083
0.167979969
0.168595198
0.169213734
0.169840325
0.170478072
0.171124192
0.171774116
0.172421746
0.17305889
0.173677489
0.174270695
0.17483348
0.175362743
0.175856945
0.176315263
0.176735966
0.177113232
0.177430136
0.177642193
0.0536155681
0.0533124477
0.0530900939
0.0529224743
0.0527937728
0.0526945522
0.0526183737
0.052559991
0.0525155398
0.0524813445
0.0524546972
0.0524338304
0.052417381
0.0524041998
0.0523934925
0.0523847336
0.0523775197
0.0523715057
0.0523664483
0.0523621761
0.052358545
0.052355432
0.0523527492
0.0523504302
0.0523484157
0.0523466552
0.0523451113
0.0523437527
0.0523425544
0.0523414954
0.052340557
0.0523397233
0.052338984
0.0523383304
0.0523377569
0.0523372632
0.0523368424
0.0523360764
0.0523213763
0.0520591373
0.0536695756
0.0534061261
0.0532040566
0.0530452747
0.0529179052
0.0528141712
0.0527294328
0.0526603642
0.0526044363
0.052559071
0.0525220553
0.0524918239
0.0524671666
0.0524469331
0.0524301921
0.0524162788
0.05240469
0.0523949718
0.0523867643
0.0523798065
0.0523738894
0.0523688252
0.0523644675
0.0523607071
0.0523574528
0.0523546216
0.0523521495
0.0523499841
0.0523480823
0.0523464089
0.0523449338
0.0523436291
0.0523424757
0.052341458
0.052340564
0.052339788
0.0523391324
0.0523385238
0.0523358088
0.0522922394
0.0537233846
0.0534861907
0.0532966309
0.0531441899
0.0530196576
0.0529161338
0.0528289656
0.0527552485
0.0526929495
0.0526402911
0.0525957082
0.0525579505
0.0525260195
0.052499009
0.0524760992
0.052456622
0.0524400459
0.0524259182
0.0524138398
0.0524034824
0.052394589
0.0523869366
0.0523803289
0.0523746063
0.0523696432
0.0523653287
0.0523615689
0.0523582821
0.0523554001
0.052352868
0.052350642
0.0523486813
0.0523469516
0.0523454247
0.0523440782
0.0523428932
0.0523418586
0.0523409526
0.0523400812
0.0523412135
0.0537398871
0.0535187258
0.0533369191
0.0531879894
0.0530650143
0.0529623145
0.0528755333
0.0528015493
0.0527381048
0.052683527
0.0526364777
0.0525958607
0.0525608006
0.0525305648
0.052504493
0.0524819949
0.052462578
0.0524458261
0.0524313656
0.0524188689
0.0524080629
0.052398712
0.0523906091
0.0523835766
0.0523774644
0.0523721464
0.0523675123
0.0523634656
0.0523599238
0.0523568175
0.052354089
0.052351688
0.0523495711
0.0523477019
0.0523460462
0.0523445738
0.0523432518
0.0523420712
0.0523415009
0.052359303
0.053737138
0.0535114343
0.0533257827
0.0531746043
0.0530506234
0.0529477148
0.0528611412
0.0527875392
0.0527245289
0.0526704414
0.0526239519
0.0525839232
0.052549463
0.0525198566
0.0524944631
0.052472668
0.0524539494
0.0524378789
0.052424074
0.052412201
0.0524019903
0.0523931956
0.0523856042
0.0523790463
0.052373369
0.0523684477
0.0523641761
0.0523604582
0.0523572116
0.0523543717
0.0523518822
0.0523496925
0.0523477631
0.0523460609
0.0523445511
0.0523431997
0.0523419739
0.0523409105
0.0523419214
0.0524022624
0.0537135757
0.0534672901
0.0532706059
0.0531142988
0.0529877831
0.0528835623
0.0527965399
0.0527234576
0.052662009
0.0526105371
0.0525674821
0.0525313764
0.0525010784
0.0524757627
0.0524546297
0.0524369035
0.0524219907
0.0524094458
0.0523988529
0.0523898817
0.0523822771
0.0523758005
0.0523702637
0.0523655218
0.0523614452
0.0523579329
0.0523548969
0.05235226
0.0523499615
0.0523479556
0.0523461976
0.0523446512
0.0523432896
0.0523420861
0.0523410144
0.05234005
0.0523391802
0.0523386532
0.0523460539
0.0525606048
0.0536585688
0.0533882656
0.0531809878
0.0530185026
0.0528877009
0.0527814866
0.0526956799
0.0526265382
0.0525710784
0.0525270655
0.0524920624
0.052463969
0.0524414115
0.0524233742
0.0524088182
0.0523969395
0.0523872173
0.0523792179
0.0523725762
0.0523670434
0.0523624027
0.0523584786
0.0523551517
0.052352315
0.0523498839
0.0523477918
0.0523459795
0.0523444028
0.0523430303
0.0523418298
0.0523407743
0.0523398457
0.0523390252
0.0523382937
0.052337638
0.0523370484
0.0523365555
0.0523372698
0.0523691368
0.0531634772
0.0536130526
0.0533044505
0.0530759805
0.0529029407
0.0527687625
0.0526653177
0.0525874906
0.0525293373
0.0524861289
0.052454192
0.0524301325
0.0524116431
0.0523973656
0.0523862871
0.0523774973
0.0523704162
0.0523646872
0.0523600034
0.0523561273
0.0523529067
0.0523502042
0.0523479161
0.0523459737
0.0523443122
0.0523428825
0.0523416466
0.052340571
0.0523396317
0.0523388103
0.0523380873
0.0523374485
0.0523368837
0.0523363807
0.0523359299
0.0523355245
0.0523351642
0.0523349922
0.0523389655
0.0524490122
0.0551858887
0.0705821569
0.0870964916
0.0997023042
0.109539301
0.117145205
0.122191061
0.125955897
0.129153854
0.131909875
0.134234075
0.136122355
0.137609041
0.138777457
0.139702797
0.140453882
0.141069182
0.141573871
0.141969021
0.142266627
0.142482283
0.142625767
0.142707477
0.142736368
0.142718544
0.142657453
0.142558341
0.142425665
0.142264342
0.142078903
0.141871552
0.141643649
0.141396407
0.141129164
0.140841244
0.140532896
0.140206275
0.139864745
0.139511422
0.139149087
0.138779346
0.138403188
0.138020608
0.137631522
0.137236237
0.136835851
0.13643107
0.136022469
0.135610079
0.135193284
0.134771046
0.13434197
0.133904245
0.133456003
0.13299532
0.132520838
0.132031174
0.131525443
0.131002986
0.130463277
0.129906027
0.129330753
0.128737147
0.128124443
0.127492337
0.126839692
0.126165333
0.125467837
0.124745657
0.123996727
0.123219404
0.122411507
0.121571381
0.120697353
0.119788016
0.118841998
0.117858037
0.116834412
0.11577049
0.114665457
0.113518421
0.112328814
0.11109638
0.10982118
0.10850346
0.107143729
0.105742488
0.104300643
0.102819104
0.101298796
0.0997407309
0.0981458928
0.0965153203
0.0948499257
0.093150577
0.0914179341
0.0896525003
0.0878548571
0.0860249274
0.0841623684
0.0822672903
0.0803391652
0.0783774895
0.076381612
0.0743507324
0.0722838185
0.0701796814
0.0680364525
0.0658516357
0.063622336
0.0613449935
0.0590155114
0.0566289309
0.0541796084
0.0516613195
0.0490676408
0.0463925396
0.0436307255
0.0407792675
0.0378394689
0.0348197022
0.0317374648
0.0286229774
0.0255200703
0.0224842922
0.0195759641
0.016853013
0.0143623082
0.0121339283
0.0101800626
0.00849729341
0.00707073615
0.00587740642
0.00489420052
0.00409581788
0.00345613457
0.00295741777
0.00258031258
0.00231206496
0.00213987589
0.00205717877
0.00206317492
0.00216238835
0.00235912184
0.00265643973
0.00305436957
0.00355233648
0.00415010962
0.00484813528
0.00564778076
0.00655100216
0.00755973809
0.00867583268
0.00990034851
0.011237617
0.0126891263
0.014254993
0.015934255
0.017724811
0.0196235086
0.0216261521
0.0237275296
0.0259214871
0.0282010338
0.0305584736
0.0329855635
0.0354736792
0.0380139862
0.0405976037
0.0432157647
0.0458599652
0.0485221252
0.0511948223
0.0538722802
0.0565351609
0.059203021
0.0618525766
0.0644789571
0.0670810933
0.0696553219
0.0721984905
0.0747079176
0.0771813345
0.0796168968
0.0820131936
0.0843691133
0.0866836846
0.0889561681
0.0911863914
0.0933746277
0.0955208923
0.0976249958
0.0996875106
0.101710593
0.103694214
0.105639055
0.10754468
0.109413075
0.111247578
0.11304547
0.114807602
0.116523348
0.118199902
0.119845478
0.121460357
0.123038222
0.124570239
0.12607156
0.127530653
0.128954967
0.130346547
0.131695746
0.133009409
0.134283126
0.135523944
0.136725923
0.137891286
0.139021553
0.140117088
0.141186251
0.142227627
0.143245234
0.144242428
0.145220641
0.146180272
0.147117749
0.148031336
0.14892071
0.149786766
0.150632333
0.151461672
0.152279811
0.15309171
0.153901509
0.154711997
0.155524413
0.156338791
0.15715515
0.157980729
0.158785366
0.159589969
0.160386138
0.16117082
0.161941006
0.162694468
0.163429428
0.16414464
0.164839493
0.165514173
0.166169839
0.16680879
0.167434581
0.168051996
0.168666727
0.169284585
0.169910119
0.17054607
0.171190308
0.171837829
0.172482624
0.173116707
0.173732203
0.174322413
0.174882415
0.175409176
0.17590119
0.176357639
0.176776785
0.177152787
0.177468715
0.177680172
0.0523557143
0.0496287929
0.043423973
0.0346657365
0.0257944184
0.0215425468
0.0312807485
0.0463751213
0.0597618921
0.0701251343
0.0777105914
0.0831086955
0.0875042352
0.091361718
0.0948940153
0.0981165436
0.100946678
0.103325428
0.105301695
0.106998883
0.108493116
0.109816328
0.110987939
0.112014608
0.112901792
0.113661554
0.114309065
0.114878857
0.11539272
0.115854886
0.116263738
0.116617214
0.116912204
0.11714911
0.117332306
0.117472339