/*--------------------------------*- C++ -*----------------------------------*\
  =========                 |
  \\      /  F ield         | OpenFOAM: The Open Source CFD Toolbox
   \\    /   O peration     | Website:  https://openfoam.org
    \\  /    A nd           | Version:  6
     \\/     M anipulation  |
\*---------------------------------------------------------------------------*/
FoamFile
{
    version     2.0;
    format      ascii;
    class       volScalarField;
    location    "25000";
    object      OH;
}
// * * * * * * * * * * * * * * * * * * * * * * * * * * * * * * * * * * * * * //

dimensions      [0 0 0 0 0 0 0];

internalField   nonuniform List<scalar> 
44870
(
1.51488964e-52
3.38809665e-52
5.53663427e-52
7.9027115e-52
1.04460423e-51
1.313391e-51
1.59455622e-51
1.88627575e-51
2.18760417e-51
2.49745678e-51
2.81551696e-51
3.14124569e-51
3.47459887e-51
3.81521428e-51
4.16322024e-51
4.51844749e-51
4.88106773e-51
5.2509399e-51
5.62817011e-51
6.01264289e-51
6.40441788e-51
6.80342777e-51
7.20972792e-51
7.63803737e-51
1.15299607e-50
8.46247307e-49
2.0820232e-46
5.32819062e-44
1.39889216e-41
3.75292961e-39
1.024985e-36
2.83842078e-34
7.93477604e-32
2.22736869e-29
6.23434198e-27
1.72344906e-24
4.63421939e-22
1.18348501e-19
2.71210512e-17
5.14819406e-15
1.51574402e-52
3.39266242e-52
5.55506122e-52
7.95161862e-52
1.05493762e-51
1.3320042e-51
1.6248158e-51
1.93170965e-51
2.2519354e-51
2.58437283e-51
2.92874457e-51
3.28416133e-51
3.65073894e-51
4.02774974e-51
4.41542049e-51
4.81323843e-51
5.22144233e-51
5.63954594e-51
6.06782041e-51
6.50576971e-51
6.9537081e-51
7.41108859e-51
7.87828449e-51
8.37405632e-51
1.36233731e-50
1.25782293e-48
3.43281234e-46
9.88472246e-44
2.95524248e-41
9.12861826e-39
2.89069209e-36
9.36274303e-34
3.07942731e-31
1.02806553e-28
3.45332097e-26
1.16624147e-23
3.9015128e-21
1.28550842e-18
3.93243709e-16
1.1085986e-13
1.52794322e-52
3.455696e-52
5.7346366e-52
8.33170346e-52
1.12287105e-51
1.44017606e-51
1.78416183e-51
2.15255312e-51
2.54489548e-51
2.95906243e-51
3.39515129e-51
3.85089724e-51
4.3271948e-51
4.82142054e-51
5.33552346e-51
5.86633561e-51
6.41623472e-51
6.98193291e-51
7.56596375e-51
8.1646526e-51
8.78106623e-51
9.41066965e-51
1.00577536e-50
1.08109499e-50
3.66022096e-50
7.15214595e-48
2.14399505e-45
6.82512517e-43
2.25611928e-40
7.76873935e-38
2.72498487e-35
9.84886517e-33
3.5842633e-30
1.33829858e-27
4.99889668e-25
1.91112478e-22
7.26527776e-20
2.8284884e-17
1.04860654e-14
3.95154408e-12
1.6916149e-52
4.06391978e-52
7.09174382e-52
1.07417816e-51
1.49621504e-51
1.97017041e-51
2.49101438e-51
3.05358228e-51
3.65343992e-51
4.28603816e-51
4.94773669e-51
5.63463161e-51
6.34338192e-51
7.07079819e-51
7.81401331e-51
8.56989526e-51
9.33551055e-51
1.01083049e-50
1.08846395e-50
1.16630393e-50
1.24405396e-50
1.32143325e-50
1.3991676e-50
1.70681012e-50
6.95965347e-49
2.11887962e-46
6.93745884e-44
2.37305464e-41
8.34492842e-39
3.01360809e-36
1.10138359e-33
4.09890398e-31
1.53191398e-28
5.8122047e-26
2.20556456e-23
8.4613311e-21
3.22434839e-18
1.23044132e-15
4.50105091e-13
1.58838434e-10
4.04745224e-52
9.22216637e-52
1.48784698e-51
2.0710525e-51
2.65860878e-51
3.24400887e-51
3.82530599e-51
4.40186914e-51
4.97442199e-51
5.54386806e-51
6.11153154e-51
6.67835074e-51
7.2459938e-51
7.81511348e-51
8.38708771e-51
8.96269354e-51
9.54257728e-51
1.01273073e-50
1.07174877e-50
1.13129831e-50
1.19141632e-50
1.25218885e-50
1.33877203e-50
8.95712817e-50
2.38040825e-47
7.78128312e-45
2.62524579e-42
9.04867471e-40
3.16382284e-37
1.11643783e-34
3.96284542e-32
1.41214562e-29
5.04513615e-27
1.80598581e-24
6.47439552e-22
2.3241375e-19
8.3527407e-17
3.00529017e-14
1.08240097e-11
3.9246717e-09
2.42137518e-13
6.23286654e-13
9.97135238e-13
1.30543338e-12
1.52944297e-12
1.67568894e-12
1.76426227e-12
1.82512159e-12
1.88714964e-12
1.98539742e-12
2.14822351e-12
2.41266122e-12
2.80769876e-12
3.37649049e-12
4.16126995e-12
5.21472487e-12
6.61035395e-12
8.42067181e-12
1.07748546e-11
1.37865366e-11
1.76460322e-11
2.2554836e-11
2.87812297e-11
3.66598732e-11
4.66184013e-11
5.91831486e-11
7.48853657e-11
9.46938856e-11
1.19271941e-10
1.5011509e-10
1.88389425e-10
2.3579118e-10
2.94392224e-10
3.66016381e-10
4.53654469e-10
5.59472715e-10
6.87111125e-10
8.39155017e-10
1.01943256e-09
1.23093133e-09
1.47734023e-09
1.76182642e-09
2.08724944e-09
2.45559282e-09
2.86781697e-09
3.32306661e-09
3.81882333e-09
4.35100125e-09
4.9142232e-09
5.50225374e-09
6.10832635e-09
6.72579762e-09
7.3484409e-09
7.97123899e-09
8.59050758e-09
9.20449681e-09
9.81320932e-09
1.04186621e-08
1.10246788e-08
1.16370155e-08
1.22634633e-08
1.29138409e-08
1.36005172e-08
1.43380237e-08
1.51444524e-08
1.60403371e-08
1.7051837e-08
1.82092556e-08
1.95513046e-08
2.11218906e-08
2.29728619e-08
2.51599626e-08
2.77384415e-08
3.07697809e-08
3.42997253e-08
3.83968081e-08
4.3122128e-08
4.8558709e-08
5.48129596e-08
6.20310295e-08
7.03900188e-08
8.00997114e-08
9.14080803e-08
1.04580999e-07
1.19907758e-07
1.37681504e-07
1.58259789e-07
1.82002562e-07
2.09358004e-07
2.40878742e-07
2.77213921e-07
3.1916954e-07
3.67644657e-07
4.23664827e-07
4.88373198e-07
5.63033165e-07
6.49029326e-07
7.47913748e-07
8.61441778e-07
9.91708152e-07
1.14116137e-06
1.31263828e-06
1.5094382e-06
1.73552912e-06
1.99542395e-06
2.2946885e-06
2.64000088e-06
3.03901059e-06
3.50155312e-06
4.03930137e-06
4.66703012e-06
5.40295413e-06
6.26967946e-06
7.29632496e-06
8.52002828e-06
9.98820011e-06
1.17616684e-05
1.3918434e-05
1.65577093e-05
1.9803277e-05
2.38046305e-05
2.87310622e-05
3.47526909e-05
4.20062036e-05
5.05560948e-05
6.03750283e-05
7.13610279e-05
8.33828263e-05
9.63375779e-05
0.000110214124
0.000125127094
0.000141324438
0.000159225823
0.000179433271
0.00020272881
0.000230171313
0.000263128082
0.000303469859
0.000353802754
0.000417524867
0.000502068191
0.000616116275
0.000770111739
0.000971880649
0.00121629924
0.00148471543
0.00175876332
0.00202664703
0.00228140509
0.00251797697
0.00273331073
0.00292555221
0.00309359823
0.00323633409
0.00335300255
0.00344332187
0.00350747575
0.00354605451
0.00356001564
0.00355064384
0.00351950665
0.00346840746
0.00339933621
0.00331441609
0.00321584856
0.00310585909
0.00298664591
0.00286033349
0.00272893293
0.00259431005
0.00245816162
0.00232199942
0.00218714132
0.00205471342
0.0019256556
0.0018007411
0.00168055542
0.00156553769
0.00145599434
0.001352114
0.0012539844
0.00116160697
0.00107491132
0.000993772433
0.000918024798
0.000847465939
0.000781859508
0.000720952415
0.000664499032
0.000612255138
0.000563946248
0.000519294167
0.000478040229
0.000440011574
0.000404991054
0.000372699414
0.000342865837
0.000315372041
0.00029014161
0.000266974954
0.000245647075
0.000225928929
0.000207802049
0.000191190619
0.000175942657
0.000161910189
0.000148922928
0.000137053224
0.000126204114
0.000116229581
0.000107016214
9.85044195e-05
9.07155146e-05
8.35677465e-05
7.69969902e-05
7.0920326e-05
6.53241705e-05
6.01911509e-05
5.54589551e-05
5.11039862e-05
4.70729529e-05
4.33540897e-05
3.99347007e-05
3.67835043e-05
3.38788132e-05
3.12031141e-05
2.87423707e-05
2.64789087e-05
2.43914002e-05
2.24616604e-05
2.06758828e-05
1.90230507e-05
1.74942248e-05
1.60821871e-05
1.47806447e-05
1.35833448e-05
1.24830775e-05
1.14709477e-05
1.05471652e-05
9.70509206e-06
8.93667799e-06
8.23532162e-06
7.59493396e-06
7.00981372e-06
6.47464273e-06
5.98449948e-06
5.53487034e-06
5.12166438e-06
4.74123534e-06
4.39041132e-06
4.06652944e-06
3.7674626e-06
3.49161272e-06
3.23784007e-06
3.00526505e-06
2.79245661e-06
2.60051034e-06
2.42721926e-06
2.27102691e-06
2.13037754e-06
2.003585e-06
1.88895222e-06
1.78486216e-06
1.68985176e-06
1.60268806e-06
1.52247572e-06
1.4488734e-06
1.38258662e-06
1.32655201e-06
1.28873976e-06
6.57943604e-12
1.3273797e-11
1.7062302e-11
1.87450442e-11
1.91360719e-11
1.89430281e-11
1.87052456e-11
1.893133e-11
1.99757021e-11
2.22493878e-11
2.60442344e-11
3.18073693e-11
3.98654558e-11
5.07945561e-11
6.51383738e-11
8.3573217e-11
1.0703004e-10
1.36344522e-10
1.72968024e-10
2.17899826e-10
2.72829611e-10
3.39255211e-10
4.18808169e-10
5.13692878e-10
6.25243264e-10
7.56191929e-10
9.07747647e-10
1.08256852e-09
1.28183086e-09
1.50761779e-09
1.76047433e-09
2.04112931e-09
2.34917887e-09
2.68378762e-09
3.04361461e-09
3.42659323e-09
3.83070644e-09
4.25306532e-09
4.69130323e-09
5.14216487e-09
5.60314311e-09
6.0710144e-09
6.54327948e-09
7.01724153e-09
7.49102709e-09
7.96300215e-09
8.43199787e-09
8.89742244e-09
9.35931026e-09
9.81848853e-09
1.02767286e-08
1.0737032e-08
1.12037014e-08
1.16824683e-08
1.21800873e-08
1.27039507e-08
1.32613098e-08
1.38592112e-08
1.45046266e-08
1.5205488e-08
1.59716167e-08
1.6815762e-08
1.77539574e-08
1.88056465e-08
1.99942318e-08
2.13459678e-08
2.28950558e-08
2.46815242e-08
2.67563275e-08
2.91762289e-08
3.20053803e-08
3.5307983e-08
3.9142508e-08
4.35711893e-08
4.86367216e-08
5.44144198e-08
6.09789704e-08
6.84417313e-08
7.69484559e-08
8.66980851e-08
9.79148078e-08
1.10856253e-07
1.25810215e-07
1.43065445e-07
1.62922846e-07
1.85686303e-07
2.1173062e-07
2.41446409e-07
2.75331521e-07
3.14030071e-07
3.58282184e-07
4.08991382e-07
4.6717947e-07
5.3398484e-07
6.10657909e-07
6.98560343e-07
7.99170277e-07
9.14141655e-07
1.0453509e-06
1.19506945e-06
1.36592653e-06
1.56097537e-06
1.78378634e-06
2.03865497e-06
2.33043761e-06
2.66517789e-06
3.0500287e-06
3.49320145e-06
4.00525841e-06
4.59869734e-06
5.28914947e-06
6.09589501e-06
7.04301914e-06
8.16118801e-06
9.48932572e-06
1.10769124e-05
1.29871021e-05
1.53003737e-05
1.81182978e-05
2.15663546e-05
2.57945318e-05
3.09704647e-05
3.72596928e-05
4.47916971e-05
5.36247336e-05
6.37297622e-05
7.50107274e-05
8.7345923e-05
0.000100648031
0.000114922331
0.000130302229
0.000147053011
0.000165619788
0.000186632648
0.000210897987
0.000239517844
0.000273894856
0.000315958032
0.000368392905
0.00043499869
0.000523041003
0.000641146479
0.000799367728
0.00100444666
0.00124992622
0.00151732445
0.00178919033
0.00205436239
0.00230617396
0.00253974471
0.00275210687
0.00294146192
0.0031067797
0.00324691106
0.00336110811
0.00344911972
0.00351115603
0.00354782565
0.00356009733
0.00354926021
0.00351687987
0.00346475251
0.00339485661
0.00330930063
0.00321026896
0.00309996847
0.00298057819
0.00285420335
0.00272283642
0.00258832567
0.0024523517
0.00231641173
0.00218181073
0.00204966362
0.00192090111
0.00179628925
0.00167640584
0.00156168553
0.00145243099
0.00134882807
0.00125096264
0.0011588347
0.00107237266
0.000991451231
0.000915905924
0.000845534935
0.000780100862
0.000719350004
0.000663039969
0.000610930715
0.000562743875
0.000518203017
0.000477043357
0.000439106325
0.000404177529
0.000371965861
0.000342194624
0.000314752807
0.000289583301
0.000266477998
0.000245198042
0.00022551209
0.000207413518
0.000190843125
0.000175636101
0.000161630592
0.000148657152
0.000136806668
0.000125986329
0.000116035572
0.000106835918
9.83330885e-05
9.05580562e-05
8.34286077e-05
7.68725713e-05
7.08048049e-05
6.5215496e-05
6.00925159e-05
5.53693442e-05
5.10241304e-05
4.69992289e-05
4.32863161e-05
3.98736682e-05
3.67288842e-05
3.38293144e-05
3.11577976e-05
2.87008417e-05
2.64408674e-05
2.43563321e-05
2.24290664e-05
2.0645525e-05
1.89948735e-05
1.74682009e-05
1.60582705e-05
1.47587907e-05
1.3563506e-05
1.24651898e-05
1.14547389e-05
1.05327292e-05
9.6922335e-06
8.92521776e-06
8.22510117e-06
7.58581236e-06
7.00166252e-06
6.46734624e-06
5.97795517e-06
5.52898876e-06
5.11636873e-06
4.73646081e-06
4.38610411e-06
4.06264531e-06
3.76396517e-06
3.4884715e-06
3.2350283e-06
3.00275715e-06
2.79019026e-06
2.59856562e-06
2.42548746e-06
2.26949149e-06
2.12901658e-06
2.00237551e-06
1.88787275e-06
1.78389353e-06
1.6889772e-06
1.60189327e-06
1.52174891e-06
1.44820471e-06
1.38196728e-06
1.32597261e-06
1.28818684e-06
3.47267303e-10
5.41808487e-10
5.59219909e-10
5.20107912e-10
4.72204187e-10
4.40055523e-10
4.34334609e-10
4.60721695e-10
5.22008567e-10
6.2199036e-10
7.62546339e-10
9.46312098e-10
1.17332575e-09
1.44443351e-09
1.75911973e-09
2.11688463e-09
2.51627537e-09
2.95425719e-09
3.42705097e-09
3.92846417e-09
4.45160023e-09
4.98872004e-09
5.53233135e-09
6.07560612e-09
6.61259995e-09
7.13905745e-09
7.65064548e-09
8.14404962e-09
8.61565734e-09
9.06229985e-09
9.48178717e-09
9.87339754e-09
1.02382441e-08
1.05795883e-08
1.09020154e-08
1.12110341e-08
1.15111201e-08
1.18054151e-08
1.20961444e-08
1.23850635e-08
1.26756596e-08
1.29722779e-08
1.32818202e-08
1.36113241e-08
1.39675037e-08
1.43545776e-08
1.47732004e-08
1.52216098e-08
1.56983375e-08
1.62053642e-08
1.67499235e-08
1.73450892e-08
1.80081022e-08
1.87577358e-08
1.96101533e-08
2.05758333e-08
2.16586717e-08
2.28595254e-08
2.41813917e-08
2.56352577e-08
2.72422266e-08
2.90336662e-08
3.10462429e-08
3.33215106e-08
3.59008714e-08
3.88290809e-08
4.21670169e-08
4.59840285e-08
5.03659518e-08
5.54006996e-08
6.11747773e-08
6.77575532e-08
7.51963569e-08
8.35406011e-08
9.28210622e-08
1.03139537e-07
1.14626519e-07
1.27487919e-07
1.41988116e-07
1.58461516e-07
1.77247635e-07
1.98701618e-07
2.23172464e-07
2.50971166e-07
2.82395946e-07
3.17763017e-07
3.5747633e-07
4.02033719e-07
4.52072651e-07
5.0843167e-07
5.72110076e-07
6.44275233e-07
7.26213709e-07
8.19315502e-07
9.25064092e-07
1.04502733e-06
1.18088073e-06
1.33450157e-06
1.50804753e-06
1.70420329e-06
1.92600917e-06
2.17703228e-06
2.46148595e-06
2.78442751e-06
3.1515215e-06
3.56989445e-06
4.04779069e-06
4.59477037e-06
5.22297396e-06
5.94679717e-06
6.78378267e-06
7.75584837e-06
8.89014958e-06
1.02208233e-05
1.17908099e-05
1.36540812e-05
1.58787946e-05
1.85506436e-05
2.1775958e-05
2.56832516e-05
3.0422834e-05
3.61579876e-05
4.30439415e-05
5.119491e-05
6.06577595e-05
7.1402378e-05
8.33484438e-05
9.63957091e-05
0.000110490071
0.000125675133
0.000142124364
0.000160140222
0.000180226786
0.000203076741
0.00022954709
0.000260839924
0.00029842962
0.000344376196
0.000401512722
0.000474698772
0.000570527167
0.000697452749
0.000864628091
0.00107623844
0.00132333808
0.00158808376
0.00185503151
0.00211422346
0.00235955979
0.00258660414
0.00279249401
0.00297557167
0.00313497678
0.00326945753
0.00337829537
0.00346130793
0.00351876214
0.003551305
0.00355992903
0.00354593191
0.00351087419
0.00345653586
0.00338487009
0.00329795309
0.00319793202
0.00308697336
0.00296721434
0.00284071853
0.00270943803
0.00257518309
0.00243959929
0.00230415231
0.00217011925
0.00203859081
0.00191047782
0.00178653097
0.00166731092
0.00155324308
0.00144462195
0.00134162726
0.00124434055
0.00115275903
0.00106680935
0.000986365394
0.000911263037
0.000841301658
0.000776244992
0.000715840326
0.000659847034
0.000608028255
0.000560106407
0.000515808572
0.000474869004
0.000437131905
0.000402387752
0.000370343216
0.000340724823
0.000313416431
0.000288369223
0.000265373484
0.000244195367
0.000224604574
0.000206584852
0.000190086954
0.000174947303
0.000161003322
0.000148083981
0.000136284052
0.000125510048
0.000115597421
0.000106434255
9.79656242e-05
9.02221794e-05
8.31221963e-05
7.65920474e-05
7.05486555e-05
6.49812262e-05
5.98794892e-05
5.51743041e-05
5.08449999e-05
4.68365562e-05
4.31389209e-05
3.97400731e-05
3.66077822e-05
3.37193328e-05
3.10578448e-05
2.86096236e-05
2.63570763e-05
2.42789215e-05
2.23572642e-05
2.05788483e-05
1.89330568e-05
1.74111062e-05
1.60058092e-05
1.47108799e-05
1.35200297e-05
1.24259834e-05
1.14192076e-05
1.05010863e-05
9.66404466e-06
8.90008641e-06
8.20268304e-06
7.56580062e-06
6.98377735e-06
6.45133496e-06
5.96359353e-06
5.51608108e-06
5.10474706e-06
4.72598332e-06
4.37665278e-06
4.05412301e-06
3.75629194e-06
3.48158017e-06
3.22886006e-06
2.9972567e-06
2.78543367e-06
2.5943106e-06
2.4216864e-06
2.26612128e-06
2.12602901e-06
1.99972023e-06
1.88550259e-06
1.78176633e-06
1.68705635e-06
1.6001477e-06
1.52015266e-06
1.44673598e-06
1.38060684e-06
1.32470013e-06
1.2869729e-06
2.33339502e-08
2.57350349e-08
2.12780623e-08
1.6631334e-08
1.35608708e-08
1.21167868e-08
1.17581898e-08
1.20954558e-08
1.28832911e-08
1.39457833e-08
1.51303535e-08
1.62979503e-08
1.73274326e-08
1.81647336e-08
1.88028054e-08
1.92626122e-08
1.95714359e-08
1.97601523e-08
1.98497519e-08
1.98411075e-08
1.97402941e-08
1.95666361e-08
1.93522025e-08
1.91310735e-08
1.89370609e-08
1.87927275e-08
1.8705063e-08
1.86594074e-08
1.86324311e-08
1.8611613e-08
1.86002201e-08
1.86158708e-08
1.86836948e-08
1.88302127e-08
1.90736476e-08
1.94137413e-08
1.98267754e-08
2.02784501e-08
2.07468566e-08
2.1232642e-08
2.17633291e-08
2.23771865e-08
2.31187839e-08
2.4018203e-08
2.50833617e-08
2.62903548e-08
2.7590537e-08
2.89374897e-08
3.03145135e-08
3.17467159e-08
3.32944459e-08
3.5036113e-08
3.7046007e-08
3.93735689e-08
4.20258055e-08
4.49662357e-08
4.81357673e-08
5.14888048e-08
5.50228331e-08
5.87895484e-08
6.28810067e-08
6.74060737e-08
7.24609131e-08
7.81271306e-08
8.44671616e-08
9.15551874e-08
9.95096575e-08
1.08464185e-07
1.18574649e-07
1.29967563e-07
1.42723337e-07
1.56852143e-07
1.72313909e-07
1.89099612e-07
2.07229558e-07
2.26913827e-07
2.4847732e-07
2.72380648e-07
2.99161274e-07
3.29397029e-07
3.63621313e-07
4.0227351e-07
4.45691024e-07
4.94128664e-07
5.47798024e-07
6.07014725e-07
6.72264095e-07
7.44256032e-07
8.23963986e-07
9.12648469e-07
1.01178732e-06
1.12302362e-06
1.24807099e-06
1.3887003e-06
1.54672621e-06
1.72399311e-06
1.92244925e-06
2.14431501e-06
2.3922285e-06
2.66955306e-06
2.98001506e-06
3.32808401e-06
3.71908162e-06
4.15933912e-06
4.65592167e-06
5.21760282e-06
5.85452797e-06
6.57855533e-06
7.40424192e-06
8.34898e-06
9.433684e-06
1.06842166e-05
1.21325197e-05
1.38181881e-05
1.57902787e-05
1.81093709e-05
2.08508669e-05
2.41076631e-05
2.79920812e-05
3.2635283e-05
3.81862017e-05
4.4799978e-05
5.26161242e-05
6.17275806e-05
7.21705746e-05
8.39200378e-05
9.69267503e-05
0.000111122556
0.000126503327
0.000143173785
0.000161368314
0.000181440783
0.000203995518
0.000229821943
0.000259842672
0.000295431212
0.000338148349
0.000390256914
0.000455587583
0.000538808281
0.000646376567
0.000786381072
0.000965978473
0.00118540213
0.00143308837
0.00169294907
0.00195215335
0.0022022348
0.00243776727
0.00265507382
0.00285129545
0.00302502668
0.00317569137
0.00330179155
0.00340269272
0.00347831561
0.00352901028
0.00355547709
0.00355874197
0.00354011252
0.00350113954
0.00344357741
0.0033693406
0.00328045665
0.00317901698
0.00306712795
0.00294686473
0.00282022913
0.00268911357
0.00255527206
0.00242029846
0.00228561191
0.00215244838
0.00202186268
0.00189473861
0.00177179824
0.00165358206
0.00154050088
0.0014328369
0.00133076066
0.00123434728
0.00114359023
0.00105841419
0.000978691312
0.000904256457
0.00083491121
0.000770424323
0.000710545709
0.000655031724
0.000603646135
0.000556126331
0.000512195902
0.00047159758
0.000434160394
0.000399677515
0.00036788087
0.000338510345
0.000311419347
0.000286544409
0.00026368698
0.000242663892
0.000223240793
0.000205356277
0.000188949658
0.000173888272
0.000160042367
0.000147227145
0.00013551288
0.000124791789
0.000114922445
0.000105821588
9.74181157e-05
8.97245049e-05
8.26577641e-05
7.6160292e-05
7.01587e-05
6.4631236e-05
5.95579412e-05
5.48794864e-05
5.05712905e-05
4.65894242e-05
4.29170194e-05
3.95383021e-05
3.64231461e-05
3.35513228e-05
3.09058504e-05
2.84713537e-05
2.62299168e-05
2.41612823e-05
2.22483031e-05
2.04779042e-05
1.88395905e-05
1.73248075e-05
1.59265442e-05
1.46385343e-05
1.3454407e-05
1.23668069e-05
1.1365542e-05
1.04533501e-05
9.62150046e-06
8.86213769e-06
8.16881909e-06
7.53556322e-06
6.95674732e-06
6.42713281e-06
5.94188202e-06
5.49656593e-06
5.08717565e-06
4.71014206e-06
4.36236368e-06
4.04123936e-06
3.74469273e-06
3.47116358e-06
3.21953693e-06
2.98895228e-06
2.77830602e-06
2.58785194e-06
2.41593455e-06
2.26102267e-06
2.12150855e-06
1.9957016e-06
1.88191447e-06
1.77854501e-06
1.6841468e-06
1.5975033e-06
1.51773414e-06
1.44451029e-06
1.37854497e-06
1.32277162e-06
1.28513334e-06
1.49297057e-06
7.70587396e-07
3.7219329e-07
2.13910677e-07
1.58007232e-07
1.35896295e-07
1.16190309e-07
9.80446369e-08
8.40791245e-08
7.45725272e-08
6.83078983e-08
6.31744786e-08
5.76510053e-08
5.22105394e-08
4.75911435e-08
4.41368341e-08
4.18365136e-08
4.04991491e-08
3.96072698e-08
3.83953244e-08
3.67849517e-08
3.51298176e-08
3.38271689e-08
3.31481781e-08
3.31986054e-08
3.38773673e-08
3.48906248e-08
3.57600992e-08
3.6217052e-08
3.63582124e-08
3.64838646e-08
3.69181822e-08
3.79078755e-08
3.95737482e-08
4.18633658e-08
4.45021255e-08
4.70650329e-08
4.9249762e-08
5.10695861e-08
5.27963889e-08
5.48138947e-08
5.74397226e-08
6.08770192e-08
6.51254904e-08
6.99834739e-08
7.50507558e-08
7.99037306e-08
8.43415708e-08
8.84885084e-08
9.27130217e-08
9.74609363e-08
1.03107661e-07
1.09854187e-07
1.17668457e-07
1.26271625e-07
1.35241842e-07
1.44210776e-07
1.53047194e-07
1.61914735e-07
1.71188399e-07
1.81294828e-07
1.92569771e-07
2.05188675e-07
2.1919482e-07
2.34633594e-07
2.51614753e-07
2.7039007e-07
2.91249368e-07
3.14460583e-07
3.40099406e-07
3.6803877e-07
3.97964309e-07
4.29531764e-07
4.62626947e-07
4.97394923e-07
5.3448486e-07
5.7483447e-07
6.19518463e-07
6.6960697e-07
7.26038311e-07
7.8947832e-07
8.60262662e-07
9.38439182e-07
1.02393978e-06
1.11671157e-06
1.21710943e-06
1.32587452e-06
1.44423568e-06
1.57390769e-06
1.7169845e-06
1.87577696e-06
2.05266357e-06
2.24993813e-06
2.46983052e-06
2.71450938e-06
2.98609963e-06
3.28684872e-06
3.61947804e-06
3.98739572e-06
4.39488702e-06
4.84686741e-06
5.34926918e-06
5.90913363e-06
6.53473537e-06
7.2353016e-06
8.0218875e-06
8.9076611e-06
9.90784621e-06
1.10405891e-05
1.23274806e-05
1.37941252e-05
1.54720657e-05
1.73998611e-05
1.96245224e-05
2.22031258e-05
2.52044243e-05
2.87126694e-05
3.28287884e-05
3.76706068e-05
4.33690505e-05
5.00685723e-05
5.79118581e-05
6.70190284e-05
7.74587781e-05
8.92667557e-05
0.000102435326
0.000116970591
0.000132841368
0.000150113452
0.000168975339
0.00018974632
0.000212835201
0.000239007818
0.000269183627
0.000304341832
0.000346138245
0.000396177477
0.000457842753
0.00053473094
0.000631585848
0.000754770048
0.000911238938
0.00110469501
0.0013305947
0.00157617234
0.00182825846
0.00207673756
0.00231463539
0.00253736478
0.00274170543
0.00292528787
0.00308686613
0.00322629315
0.00334155639
0.00343221406
0.00349832385
0.00354033851
0.00355902719
0.00355545318
0.00353093142
0.00348699628
0.00342536604
0.00334790293
0.00325657007
0.00315338588
0.00304037847
0.00291954256
0.0027928002
0.0026619668
0.00252872399
0.00239459905
0.0022609513
0.00212896388
0.00199964506
0.00187384656
0.00175224773
0.00163536878
0.00152359987
0.00141720761
0.00131635063
0.00122109562
0.00113143163
0.00104728168
0.000968515551
0.000894965083
0.00082643461
0.000762702819
0.000703525009
0.000648648731
0.000597833374
0.00055083537
0.000507401464
0.000467266741
0.00043022852
0.000396076993
0.000364602393
0.00033557487
0.000308787642
0.000284132598
0.000261437044
0.00024061782
0.000221437198
0.000203745533
0.000187446705
0.000172469436
0.000158756825
0.000146098051
0.000134504668
0.000123840609
0.000114018331
0.000105005647
9.66989011e-05
8.90726871e-05
8.20409766e-05
7.55821283e-05
6.96399524e-05
6.41705103e-05
5.91365313e-05
5.44842992e-05
5.02047819e-05
4.62605357e-05
4.26228949e-05
3.92698487e-05
3.61758389e-05
3.33259875e-05
3.07024325e-05
2.82864869e-05
2.60596782e-05
2.40036738e-05
2.21025144e-05
2.03431082e-05
1.87149564e-05
1.72098479e-05
1.58210752e-05
1.45423841e-05
1.33672621e-05
1.22882524e-05
1.12942208e-05
1.03900822e-05
9.56506683e-06
8.81176766e-06
8.12385282e-06
7.49539985e-06
6.92083476e-06
6.39497034e-06
5.91302431e-06
5.47062436e-06
5.06381651e-06
4.68908285e-06
4.34336866e-06
4.02411386e-06
3.72927584e-06
3.45731955e-06
3.20714665e-06
2.97791295e-06
2.76865011e-06
2.57923463e-06
2.40827981e-06
2.25423873e-06
2.11549234e-06
1.99035135e-06
1.87713545e-06
1.77425272e-06
1.68026852e-06
1.5939775e-06
1.51450872e-06
1.4415413e-06
1.37579395e-06
1.32019834e-06
1.28267864e-06
8.20782449e-05
1.47470572e-05
5.05279233e-06
3.29763737e-06
2.73615254e-06
2.18003313e-06
1.38556251e-06
8.42169788e-07
5.73426651e-07
4.63197839e-07
4.1603788e-07
3.61096919e-07
2.82694173e-07
2.15231023e-07
1.7243974e-07
1.51321122e-07
1.44963076e-07
1.46482142e-07
1.45933889e-07
1.34097086e-07
1.17534644e-07
1.0390885e-07
9.67451095e-08
9.66266574e-08
1.02114434e-07
1.10430392e-07
1.17818359e-07
1.20233662e-07
1.1785526e-07
1.1397187e-07
1.11755775e-07
1.1301383e-07
1.18323967e-07
1.27204706e-07
1.38172932e-07
1.48644541e-07
1.56011453e-07
1.59721615e-07
1.61472055e-07
1.63705039e-07
1.68381293e-07
1.7640256e-07
1.87775346e-07
2.01570848e-07
2.16134232e-07
2.29320102e-07
2.39680689e-07
2.47404449e-07
2.54048357e-07
2.61579169e-07
2.7155957e-07
2.84778848e-07
3.01157157e-07
3.19783456e-07
3.39091308e-07
3.57501965e-07
3.74161609e-07
3.89341261e-07
4.04202799e-07
4.20181956e-07
4.38399979e-07
4.59376381e-07
4.83049602e-07
5.09098601e-07
5.37428183e-07
5.68265529e-07
6.02173416e-07
6.3966731e-07
6.81026474e-07
7.25915825e-07
7.73544659e-07
8.22860522e-07
8.73072084e-07
9.24172405e-07
9.76899484e-07
1.03293268e-06
1.09431937e-06
1.16296893e-06
1.24048454e-06
1.32795809e-06
1.42580386e-06
1.53381173e-06
1.65133514e-06
1.77772782e-06
1.91263914e-06
2.05664726e-06
2.21105264e-06
2.37794705e-06
2.56007414e-06
2.76053655e-06
2.98252049e-06
3.22904442e-06
3.50281286e-06
3.80627735e-06
4.14173891e-06
4.51145436e-06
4.91781087e-06
5.36406112e-06
5.8543279e-06
6.3937879e-06
6.98869526e-06
7.64646246e-06
8.37582424e-06
9.18693287e-06
1.0090962e-05
1.11012756e-05
1.2233793e-05
1.35068144e-05
1.49417809e-05
1.65639475e-05
1.84028548e-05
2.04950795e-05
2.28847727e-05
2.56249617e-05
2.87788701e-05
3.24208637e-05
3.66414344e-05
4.15461581e-05
4.72546956e-05
5.38938936e-05
6.16035198e-05
7.05162375e-05
8.07400229e-05
9.23277191e-05
0.00010533074
0.000119763806
0.000135694806
0.000153108358
0.000172135455
0.000193036975
0.000216203868
0.000242070537
0.000271578401
0.000305748052
0.000345555287
0.000392969206
0.00045009782
0.000520279065
0.000607143427
0.000715425792
0.00085099858
0.00101925108
0.00122063001
0.00144809556
0.00168973304
0.0019344906
0.00217386417
0.00240180135
0.00261419136
0.00280817274
0.00298165684
0.00313357284
0.00326408471
0.00337079187
0.00345338775
0.00351203674
0.00354726783
0.00355990239
0.00355102636
0.00352195601
0.00347420903
0.00340947223
0.00332956458
0.0032363969
0.003131929
0.00301812681
0.00289692137
0.00277017179
0.00263963296
0.0025069296
0.00237353683
0.00224076707
0.0021097622
0.00198149295
0.00185678787
0.00173629221
0.00162050985
0.00150981499
0.00140446212
0.00130460079
0.00121029117
0.00112151837
0.00103820391
0.000960217033
0.000887388849
0.000819524362
0.000756406353
0.000697795219
0.000643439183
0.000593095851
0.000546526715
0.000503488715
0.000463721238
0.000427013112
0.000393153218
0.000361941555
0.000333169364
0.000306612715
0.00028215542
0.000259626356
0.000238967088
0.000219952329
0.000202399968
0.000186214979
0.000171336374
0.000157722614
0.00014516484
0.00013365929
0.000123064423
0.000113300178
0.000104349569
9.61042786e-05
8.85297572e-05
8.154119e-05
7.51220482e-05
6.9220966e-05
6.37895514e-05
5.87876082e-05
5.41631816e-05
4.9910055e-05
4.59928009e-05
4.23801012e-05
3.90481899e-05
3.59733175e-05
3.31415125e-05
3.05346262e-05
2.81331935e-05
2.59186961e-05
2.38735052e-05
2.19821614e-05
2.02318102e-05
1.8612191e-05
1.71153154e-05
1.57345639e-05
1.4463651e-05
1.32959873e-05
1.22240661e-05
1.12358548e-05
1.03385496e-05
9.51902086e-06
8.77064113e-06
8.08712409e-06
7.46258324e-06
6.89148196e-06
6.36867531e-06
5.88942621e-06
5.44940793e-06
5.04471062e-06
4.67185782e-06
4.32783267e-06
4.0101082e-06
3.71666892e-06
3.44599996e-06
3.19701628e-06
2.96888526e-06
2.76069328e-06
2.57216842e-06
2.40201176e-06
2.24868393e-06
2.11056409e-06
1.98596611e-06
1.87321618e-06
1.77073085e-06
1.67708473e-06
1.59108155e-06
1.51185838e-06
1.43910107e-06
1.3735324e-06
1.31808247e-06
1.28066005e-06
0.0024506147
0.0021811668
0.00196970627
0.00179558004
0.00164990586
0.00152777505
0.00142555259
0.00133996159
0.0012681943
0.00120750992
0.00115587134
0.00111181256
0.00107398238
0.00104121628
0.00101270045
0.00098782883
0.000966036114
0.000946827079
0.000929856624
0.000914848975
0.000901527379
0.000889658135
0.000879074085
0.0008696326
0.000861186129
0.000853610363
0.000846812534
0.000840708244
0.000835227941
0.000830305729
0.000825881604
0.000821904138
0.000818343861
0.000815173015
0.000812377933
0.000809972864
0.000808008747
0.000806815157
0.000811257353
0.000950790674
0.00251011514
0.00227221639
0.00208172924
0.0019241555
0.00179061889
0.00167558064
0.00157566017
0.00148842708
0.00141205644
0.00134486684
0.00128549657
0.00123296361
0.0011864538
0.00114516396
0.00110842025
0.00107569317
0.00104652481
0.0010204647
0.000997137256
0.000976244501
0.000957517848
0.000940695399
0.00092556317
0.000911950318
0.000899697776
0.000888648243
0.000878677505
0.000869677621
0.000861553142
0.000854221173
0.000847605997
0.000841632882
0.000836254375
0.000831431271
0.000827136705
0.000823369966
0.000820182626
0.000817654566
0.000816710943
0.000835329767
0.00255961392
0.00234576749
0.002168071
0.00201920703
0.00189225651
0.00178200219
0.00168490335
0.00159871885
0.00152189504
0.0014531327
0.00139129819
0.0013354899
0.00128504039
0.00123939005
0.00119799819
0.00116039588
0.00112621288
0.00109514744
0.00106689147
0.00104116154
0.00101774291
0.000996442711
0.000977053622
0.00095939332
0.000943320261
0.000928699568
0.00091540337
0.000903307541
0.000892296977
0.000882276801
0.000873172901
0.000864907628
0.000857410107
0.00085062001
0.000844492201
0.000838986686
0.000834093948
0.000829773993
0.000826090822
0.000824560245
0.00257423143
0.00237479388
0.00220465812
0.00205991678
0.00193559876
0.00182745263
0.00173216164
0.00164733774
0.00157124447
0.00150261798
0.00144044995
0.00138390359
0.00133233077
0.00128523442
0.00124216888
0.00120271589
0.00116653428
0.0011333581
0.00110293372
0.00107501999
0.00104941845
0.00102595589
0.00100445892
0.000984767936
0.000966739741
0.000950252193
0.000935186432
0.000921424825
0.000908854444
0.000897374038
0.000886896693
0.000877341665
0.000868630499
0.00086069517
0.000853462071
0.00084685573
0.000840772158
0.000835144272
0.000829784382
0.000824373101
0.00257175124
0.00236820432
0.00219444741
0.00204732501
0.00192159918
0.00181266421
0.00171691225
0.00163176551
0.00155537735
0.00148647981