/*--------------------------------*- C++ -*----------------------------------*\
  =========                 |
  \\      /  F ield         | OpenFOAM: The Open Source CFD Toolbox
   \\    /   O peration     | Website:  https://openfoam.org
    \\  /    A nd           | Version:  6
     \\/     M anipulation  |
\*---------------------------------------------------------------------------*/
FoamFile
{
    version     2.0;
    format      ascii;
    class       volScalarField;
    location    "25000";
    object      p;
}
// * * * * * * * * * * * * * * * * * * * * * * * * * * * * * * * * * * * * * //

dimensions      [1 -1 -2 0 0 0 0];

internalField   nonuniform List<scalar> 
44870
(
100426.437
100420.853
100415.416
100409.111
100401.698
100394.115
100386.226
100378.057
100369.635
100361.024
100352.223
100343.268
100334.155
100324.925
100315.581
100306.16
100296.661
100287.11
100277.503
100267.874
100258.221
100248.566
100238.905
100229.258
100219.62
100210.008
100200.417
100190.863
100181.333
100171.855
100162.396
100153.013
100143.617
100134.351
100124.98
100115.824
100105.982
100097.259
100082.523
100074.43
100426.424
100420.056
100414.572
100408.336
100401.034
100393.566
100385.78
100377.697
100369.348
100360.797
100352.049
100343.136
100334.06
100324.866
100315.545
100306.142
100296.655
100287.116
100277.522
100267.904
100258.256
100248.606
100238.947
100229.303
100219.664
100210.055
100200.461
100190.908
100181.374
100171.896
100162.433
100153.049
100143.652
100134.393
100125.007
100115.901
100106.079
100097.273
100083.353
100075.078
100428.722
100422.604
100416.633
100409.815
100402.105
100394.376
100386.399
100378.176
100369.719
100361.08
100352.262
100343.293
100334.168
100324.93
100315.586
100306.161
100296.654
100287.097
100277.493
100267.863
100258.211
100248.555
100238.896
100229.249
100219.613
100210.001
100200.413
100190.858
100181.331
100171.851
100162.396
100153.01
100143.613
100134.36
100125.018
100115.834
100106.327
100097.287
100084.505
100078.058
100424.057
100418.283
100414.255
100408.34
100401.14
100393.757
100386.002
100377.931
100369.579
100361.017
100352.258
100343.326
100334.236
100325.024
100315.689
100306.269
100296.765
100287.21
100277.602
100267.971
100258.313
100248.652
100238.985
100229.331
100219.687
100210.068
100200.471
100190.909
100181.375
100171.887
100162.431
100153.031
100143.66
100134.363
100125.048
100115.89
100106.42
100097.643
100085.116
100079.58
100441.484
100423.504
100416.756
100409.638
100401.801
100394.107
100386.176
100377.994
100369.573
100360.966
100352.168
100343.216
100334.113
100324.892
100315.556
100306.137
100296.638
100287.086
100277.485
100267.858
100258.207
100248.551
100238.891
100229.242
100219.603
100209.988
100200.395
100190.835
100181.305
100171.816
100162.366
100152.958
100143.606
100134.273
100125.025
100115.803
100106.551
100098.075
100085.048
100097.299
100021.354
100012.666
100005.839
100003.707
100002.573
100001.959
100001.566
100001.428
100001.377
100001.293
100001.2
100001.104
100001.047
100001.066
100001.12
100001.169
100001.198
100001.207
100001.199
100001.204
100001.247
100001.313
100001.37
100001.408
100001.43
100001.435
100001.43
100001.43
100001.451
100001.492
100001.523
100001.534
100001.532
100001.527
100001.522
100001.525
100001.545
100001.588
100001.65
100001.716
100001.783
100001.848
100001.913
100001.979
100002.045
100002.102
100002.153
100002.205
100002.254
100002.287
100002.307
100002.321
100002.328
100002.331
100002.333
100002.341
100002.353
100002.371
100002.391
100002.408
100002.425
100002.441
100002.457
100002.47
100002.48
100002.485
100002.481
100002.465
100002.439
100002.403
100002.362
100002.314
100002.267
100002.22
100002.172
100002.117
100002.065
100002.023
100001.982
100001.947
100001.916
100001.889
100001.865
100001.842
100001.819
100001.797
100001.774
100001.749
100001.724
100001.697
100001.669
100001.638
100001.607
100001.574
100001.541
100001.507
100001.474
100001.443
100001.416
100001.393
100001.373
100001.357
100001.343
100001.33
100001.319
100001.309
100001.299
100001.288
100001.278
100001.267
100001.257
100001.246
100001.236
100001.224
100001.212
100001.198
100001.181
100001.161
100001.135
100001.101
100001.057
100001.001
100000.93
100000.847
100000.757
100000.67
100000.592
100000.53
100000.487
100000.462
100000.45
100000.449
100000.452
100000.459
100000.467
100000.473
100000.477
100000.477
100000.475
100000.467
100000.456
100000.442
100000.428
100000.417
100000.413
100000.414
100000.414
100000.41
100000.403
100000.392
100000.378
100000.362
100000.345
100000.328
100000.31
100000.292
100000.274
100000.257
100000.241
100000.226
100000.212
100000.199
100000.187
100000.177
100000.167
100000.158
100000.15
100000.144
100000.138
100000.133
100000.129
100000.128
100000.131
100000.137
100000.131
100000.113
100000.115
100000.15
100000.15
100000.081
100000.108
100000.403
100000.589
100000.072
99999.4361
100000.303
100002.323
100001.887
99997.6365
99996.3625
100003.941
100009.893
100001.414
99986.911
99993.7633
100020.876
100025.99
99993.3522
99962.9108
99992.8876
100050.219
100046.605
99976.7641
99941.5906
100003.559
100071.197
100047.75
99965.5185
99948.6642
100021.769
100072.025
100034.907
99969.4861
99974.2043
100034.11
100059.922
100025.212
99988.555
99999.9271
100031.944
100038.382
100018.384
100004.74
100012.315
100022.455
100019.586
100010.64
100007.274
100008.83
100008.867
100006.35
100003.987
100003.006
100002.656
100002.12
100001.432
100000.913
100000.832
100000.568
100000.415
100000.271
100000.194
100000.165
100000.133
100000.094
100000.067
100000.057
100000.052
100000.043
100000.034
100000.029
100000.028
100000.029
100000.032
100000.038
100000.046
100000.041
100000.028
100000.04
100000.058
100000.03
99999.9745
99999.9948
100000.064
100000.04
99999.9379
99999.9552
100000.01
100000.026
99999.9487
100019.069
100009.973
100003.439
100002.061
100001.356
100001.176
100001.039
100001.065
100001.143
100001.156
100001.141
100001.092
100001.069
100001.11
100001.172
100001.221
100001.241
100001.235
100001.213
100001.211
100001.238
100001.29
100001.338
100001.372
100001.393
100001.4
100001.4
100001.409
100001.441
100001.492
100001.532
100001.558
100001.573
100001.58
100001.58
100001.591
100001.615
100001.659
100001.716
100001.774
100001.828
100001.875
100001.916
100001.953
100001.984
100002.002
100002.015
100002.022
100002.021
100002.008
100001.979
100001.943
100001.904
100001.865
100001.83
100001.806
100001.794
100001.794
100001.802
100001.815
100001.831
100001.851
100001.874
100001.898
100001.92
100001.938
100001.948
100001.947
100001.936
100001.915
100001.888
100001.855
100001.822
100001.79
100001.757
100001.717
100001.679
100001.652
100001.625
100001.602
100001.584
100001.569
100001.556
100001.544
100001.531
100001.519
100001.505
100001.489
100001.472
100001.454
100001.433
100001.41
100001.386
100001.36
100001.334
100001.307
100001.28
100001.255
100001.233
100001.215
100001.201
100001.19
100001.18
100001.172
100001.165
100001.159
100001.152
100001.145
100001.138
100001.13
100001.123
100001.115
100001.106
100001.097
100001.086
100001.074
100001.059
100001.039
100001.014
100000.981
100000.937
100000.881
100000.811
100000.73
100000.644
100000.561
100000.489
100000.434
100000.397
100000.377
100000.37
100000.372
100000.38
100000.39
100000.399
100000.408
100000.413
100000.415
100000.414
100000.408
100000.398
100000.386
100000.374
100000.366
100000.365
100000.368
100000.369
100000.367
100000.36
100000.35
100000.338
100000.323
100000.307
100000.29
100000.273
100000.257
100000.241
100000.225
100000.21
100000.197
100000.184
100000.172
100000.162
100000.152
100000.144
100000.136
100000.13
100000.124
100000.12
100000.115
100000.112
100000.111
100000.115
100000.122
100000.117
100000.099
100000.102
100000.137
100000.138
100000.07
100000.097
100000.391
100000.577
100000.063
99999.4285
100000.293
100002.303
100001.867
99997.6442
99996.3758
100003.915
100009.834
100001.399
99986.9581
99993.7862
100020.754
100025.838
99993.3236
99963.1048
99992.9343
100050.015
100046.322
99976.7178
99941.8937
100003.597
100070.984
100047.372
99965.4106
99948.945
100021.805
100071.677
100034.547
99969.4406
99974.2743
100034.003
100059.549
100024.856
99988.4955
99999.8949
100031.762
100038.039
100018.132
100004.625
100012.209
100022.283
100019.385
100010.502
100007.203
100008.765
100008.785
100006.28
100003.949
100002.986
100002.634
100002.094
100001.412
100000.905
100000.826
100000.562
100000.405
100000.265
100000.189
100000.16
100000.129
100000.09
100000.064
100000.055
100000.05
100000.041
100000.032
100000.028
100000.027
100000.028
100000.031
100000.037
100000.045
100000.039
100000.027
100000.038
100000.056
100000.028
99999.9727
99999.9929
100000.061
100000.038
99999.9366
99999.9536
100000.009
100000.024
99999.949
100020.886
100014.465
100006.687
100004.085
100002.306
100001.499
100001.006
100000.829
100000.775
100000.72
100000.677
100000.628
100000.64
100000.739
100000.867
100000.987
100001.078
100001.141
100001.177
100001.226
100001.308
100001.395
100001.47
100001.518
100001.542
100001.542
100001.525
100001.512
100001.52
100001.542
100001.551
100001.541
100001.518
100001.489
100001.459
100001.431
100001.425
100001.447
100001.486
100001.526
100001.563
100001.597
100001.628
100001.659
100001.686
100001.702
100001.715
100001.726
100001.731
100001.724
100001.709
100001.686
100001.658
100001.631
100001.608
100001.597
100001.597
100001.608
100001.624
100001.643
100001.665
100001.689
100001.717
100001.744
100001.77
100001.793
100001.808
100001.812
100001.807
100001.793
100001.773
100001.747
100001.723
100001.699
100001.674
100001.643
100001.614
100001.594
100001.574
100001.558
100001.546
100001.535
100001.526
100001.518
100001.51
100001.501
100001.49
100001.477
100001.464
100001.448
100001.43
100001.409
100001.386
100001.362
100001.337
100001.311
100001.286
100001.262
100001.241
100001.224
100001.21
100001.199
100001.19
100001.182
100001.176
100001.169
100001.162
100001.156
100001.148
100001.141
100001.133
100001.125
100001.117
100001.107
100001.096
100001.084
100001.068
100001.048
100001.022
100000.987
100000.943
100000.885
100000.815
100000.734
100000.648
100000.566
100000.496
100000.442
100000.406
100000.386
100000.379
100000.381
100000.388
100000.397
100000.406
100000.414
100000.419
100000.42
100000.418
100000.411
100000.4
100000.388
100000.376
100000.369
100000.369
100000.372
100000.373
100000.37
100000.363
100000.353
100000.34
100000.325
100000.309
100000.293
100000.276
100000.259
100000.243
100000.227
100000.213
100000.199
100000.186
100000.174
100000.164
100000.154
100000.146
100000.138
100000.131
100000.126
100000.121
100000.117
100000.113
100000.113
100000.117
100000.123
100000.118
100000.1
100000.103
100000.139
100000.14
100000.071
100000.096
100000.39
100000.582
100000.067
99999.4209
100000.283
100002.311
100001.888
99997.6487
99996.3462
100003.899
100009.868
100001.464
99986.8862
99993.6832
100020.793
100025.921
99993.3812
99962.9445
99992.799
100050.2
100046.509
99976.5636
99941.6241
100003.612
100071.387
100047.436
99965.0104
99948.7637
100022.056
100071.881
100034.486
99969.1507
99974.0884
100034.213
100059.652
100024.614
99988.3027
99999.8223
100031.81
100037.954
100017.936
100004.513
100012.207
100022.274
100019.289
100010.402
100007.163
100008.747
100008.739
100006.223
100003.912
100002.969
100002.614
100002.07
100001.393
100000.898
100000.836
100000.558
100000.398
100000.262
100000.188
100000.158
100000.127
100000.089
100000.063
100000.054
100000.049
100000.041
100000.032
100000.028
100000.027
100000.028
100000.031
100000.037
100000.045
100000.039
100000.027
100000.038
100000.056
100000.028
99999.9727
99999.9929
100000.061
100000.038
99999.9368
99999.9537
100000.009
100000.023
99999.9496
100003.593
100004.149
100001.405
100002.187
100001.972
100001.944
100001.883
100001.937
100001.963
100001.906
100001.804
100001.642
100001.535
100001.503
100001.489
100001.466
100001.417
100001.343
100001.25
100001.194
100001.19
100001.208
100001.219
100001.226
100001.218
100001.196
100001.167
100001.152
100001.168
100001.203
100001.223
100001.226
100001.22
100001.208
100001.19
100001.174
100001.177
100001.204
100001.245
100001.287
100001.323
100001.351
100001.373
100001.394
100001.407
100001.41
100001.415
100001.419
100001.414
100001.399
100001.374
100001.344
100001.308
100001.275
100001.247
100001.232
100001.231
100001.241
100001.259
100001.279
100001.304
100001.331
100001.362
100001.393
100001.426
100001.455
100001.477
100001.489
100001.493
100001.488
100001.478
100001.465
100001.452
100001.441
100001.429
100001.412
100001.397
100001.389
100001.381
100001.376
100001.375
100001.374
100001.374
100001.375
100001.375
100001.375
100001.372
100001.367
100001.361
100001.352
100001.341
100001.326
100001.309
100001.291
100001.271
100001.251
100001.23
100001.21
100001.194
100001.18
100001.17
100001.161
100001.155
100001.149
100001.145
100001.14
100001.135
100001.13
100001.124
100001.118
100001.112
100001.105
100001.097
100001.088
100001.078
100001.066
100001.05
100001.029
100001.003
100000.967
100000.921
100000.863
100000.793
100000.713
100000.63
100000.551
100000.485
100000.434
100000.401
100000.383
100000.377
100000.379
100000.386
100000.395
100000.404
100000.411
100000.415
100000.416
100000.412
100000.405
100000.394
100000.382
100000.371
100000.366
100000.367
100000.37
100000.371
100000.368
100000.361
100000.351
100000.338
100000.323
100000.307
100000.291
100000.274
100000.258
100000.242
100000.227
100000.212
100000.199
100000.186
100000.175
100000.164
100000.155
100000.146
100000.139
100000.132
100000.127
100000.122
100000.118
100000.114
100000.113
100000.118
100000.123
100000.117
100000.099
100000.103
100000.138
100000.139
100000.066
100000.089
100000.385
100000.577
100000.045
99999.3716
100000.244
100002.307
100001.852
99997.5062
99996.1505
100003.856
100009.9
100001.266
99986.2944
99993.2006
100020.831
100025.919
99992.7144
99961.5609
99992.0205
100050.468
100046.448
99974.9793
99939.4238
100002.78
100071.768
100046.818
99962.5624
99946.1505
100020.981
100071.24
100032.75
99966.0985
99971.1766
100032.605
100058.157
100022.234
99985.2934
99997.1305
100029.697
100035.694
100015.31
100001.812
100009.83
100020.256
100017.393
100008.613
100005.663
100007.575
100007.802
100005.462
100003.322
100002.528
100002.278
100001.808
100001.191
100000.749
100000.705
100000.47
100000.327
100000.209
100000.147
100000.127
100000.102
100000.07
100000.049
100000.044
100000.042
100000.036
100000.029
100000.026
100000.026
100000.027
100000.031
100000.037
100000.044
100000.038
100000.026
100000.037
100000.056
100000.027
99999.971
99999.9916
100000.061
100000.037
99999.935
99999.9524
100000.009
100000.023
99999.9495
100022.61
100012.901
100002.617
100002.18
100001.046
100000.5
100000.168
100000.133
100000.136
100000.124
100000.105
100000.046
100000.081
100000.21
100000.354
100000.487
100000.586
100000.638
100000.654
100000.699
100000.788
100000.879
100000.949
100000.996
100001.018
100001.009
100000.981
100000.968
100000.986
100001.016
100001.027
100001.02
100001.002
100000.976
100000.944
100000.916
100000.91
100000.928
100000.963
100000.998
100001.028
100001.051
100001.068
100001.083
100001.092
100001.093
100001.1
100001.108
100001.11
100001.101
100001.083
100001.057
100001.028
100001
100000.978
100000.97
100000.973
100000.987
100001.007
100001.028
100001.051
100001.077
100001.106
100001.135
100001.167
100001.195
100001.217
100001.23
100001.236
100001.235
100001.229
100001.221
100001.216
100001.213
100001.21
100001.202
100001.197
100001.197
100001.196
100001.199
100001.204
100001.21
100001.217
100001.224
100001.231
100001.237
100001.241
100001.243
100001.243
100001.24
100001.235
100001.226
100001.215
100001.202
100001.188
100001.172
100001.157
100001.141
100001.128
100001.119
100001.113
100001.107
100001.103
100001.101
100001.098
100001.096
100001.093
100001.09
100001.086
100001.081
100001.076
100001.071
100001.064
100001.056
100001.046
100001.033
100001.017
100000.996
100000.968
100000.932
100000.885
100000.826
100000.756
100000.678
100000.599
100000.526
100000.464
100000.418
100000.389
100000.373
100000.369
100000.372
100000.378
100000.387
100000.395
100000.402
100000.406
100000.405
100000.401
100000.393
100000.383
100000.371
100000.362
100000.359
100000.361
100000.365
100000.366
100000.362
100000.355
100000.345
100000.333
100000.318
100000.302
100000.287
100000.27
100000.254
100000.239
100000.224
100000.21
100000.196
100000.184
100000.173
100000.163
100000.154
100000.145
100000.138
100000.131
100000.126
100000.122
100000.117
100000.114
100000.113
100000.117
100000.123
100000.115
100000.097
100000.103
100000.14
100000.14
100000.065
100000.085
100000.385
100000.587
100000.047
99999.3467
100000.228
100002.345
100001.903
99997.4716
99996.038
100003.879
100010.073
100001.357
99985.9647
99992.9356
100021.09
100026.356
99992.6811
99960.8168
99991.5609
100051.286
100047.334
99974.3195
99938.0785
100002.742
100073.155
100047.448
99961.3968
99945.0376
100021.455
100072.141
100032.957
99965.094
99970.1322
100033.102
100058.79
100021.927
99984.521
99996.7079
100029.938
100035.738
100014.87
100001.404
100009.682
100020.195
100017.197
100008.383
100005.516
100007.496
100007.72
100005.367
100003.246
100002.482
100002.242
100001.771
100001.161
100000.732
100000.698
100000.455
100000.317
100000.203
100000.145
100000.124
100000.1
100000.068
100000.048
100000.043
100000.041
100000.035
100000.028
100000.025
100000.026
100000.027
100000.031
100000.037
100000.044
100000.037
100000.025
100000.036
100000.055
100000.027
99999.9703
99999.9911
100000.061
100000.037
99999.9346
99999.9523
100000.009
100000.024
99999.9492
99979.3541
100011.081
100001.369
100001.896
100001.122
100000.784
100000.56
100000.608
100000.641
100000.633
100000.589
100000.473
100000.452
100000.519
100000.598
100000.666
100000.702
100000.69
100000.645
100000.643
100000.696
100000.755
100000.798
100000.825
100000.829
100000.805
100000.769
100000.752
100000.775
100000.811
100000.826
100000.823
100000.81
100000.789
100000.76
100000.735
100000.733
100000.756
100000.794
100000.831
100000.861
100000.884
100000.899
100000.911
100000.916
100000.915
100000.922
100000.933
100000.938
100000.933
100000.917
100000.895
100000.868
100000.842
100000.822
100000.815
100000.82
100000.837
100000.857
100000.879
100000.902
100000.927
100000.956
100000.985
100001.017
100001.045
100001.067
100001.082
100001.089
100001.089
100001.087
100001.082
100001.081
100001.081
100001.083
100001.08
100001.079
100001.083
100001.085
100001.092
100001.101
100001.11
100001.119
100001.13
100001.14
100001.15
100001.157
100001.162
100001.166
100001.167
100001.165
100001.159
100001.152
100001.142
100001.132
100001.119
100001.107
100001.094
100001.084
100001.078
100001.073
100001.07
100001.068
100001.067
100001.066
100001.065
100001.063
100001.061
100001.058
100001.055
100001.051
100001.046
100001.039
100001.032
100001.022
100001.009
100000.992
100000.97
100000.942
100000.904
100000.856
100000.797
100000.728
100000.652
100000.576
100000.507
100000.449
100000.407
100000.379
100000.366
100000.362
100000.365
100000.372
100000.38
100000.388
100000.394
100000.397
100000.396
100000.392
100000.383
100000.373
100000.362
100000.355
100000.354
100000.357
100000.36
100000.361
100000.357
100000.35
100000.34
100000.328
100000.313
100000.298
100000.282
100000.267
100000.251
100000.236
100000.221
100000.207
100000.194
100000.182
100000.171
100000.161
100000.152
100000.144
100000.137
100000.131
100000.125
100000.121
100000.116
100000.113
100000.112
100000.116
100000.119
100000.109
100000.093
100000.099
100000.132
100000.13
100000.055
100000.067
100000.345
100000.531
99999.9978
99999.2972
100000.11
100002.115
100001.657
99997.3548
99995.9068
100003.396
100009.278
100000.798
99985.7067
99992.2446
100019.273
100024.232
99991.6918
99960.6102
99989.8253
100047.516
100043.678
99972.7521
99937.3164
99999.6134
100067.828
100042.652
99958.6002
99942.3323
100016.007
100064.682
100026.699
99960.2376
99964.4177
100025.898
100050.672
100014.913
99978.3801
99989.98
100022.169
100027.546
100007.364
99994.4803
100002.84
100013.51
100011.18
100003.355
100001.282
100003.915
100004.791
100003.1
100001.531
100001.169
100001.222
100000.987
100000.568
100000.283
100000.244
100000.184
100000.112
100000.046
100000.022
100000.028
100000.024
100000.01
100000.004
100000.01
100000.016
100000.017
100000.016
100000.016
100000.019
100000.023
100000.027
100000.035
100000.041
100000.035
100000.023
100000.034
100000.052
100000.024
99999.9688
99999.9886
100000.056
100000.032
99999.9331
99999.951
100000.005
100000.022
99999.949
100029.906
100026.682
100025.272
100023.638
100022.315
100021.108
100020.054
100019.098
100018.225
100017.407
100016.628
100015.882
100015.163
100014.461
100013.773
100013.099
100012.437
100011.785
100011.141
100010.504
100009.873
100009.249
100008.63
100008.014
100007.402
100006.793
100006.186
100005.582
100004.979
100004.378
100003.777
100003.174
100002.56
100001.946
100001.272
100000.619
99999.7392
99998.8982
99997.2276
99995.1629
100028.778
100026.529
100025.205
100023.628
100022.316
100021.113
100020.06
100019.106
100018.232
100017.412
100016.633
100015.887
100015.167
100014.464
100013.775
100013.101
100012.439
100011.785
100011.142
100010.505
100009.874
100009.25
100008.63
100008.014
100007.403
100006.794
100006.186
100005.582
100004.98
100004.379
100003.778
100003.176
100002.563
100001.95
100001.28
100000.632
99999.7777
99998.9777
99997.5315
99996.849
100028.753
100026.651
100025.285
100023.69
100022.353
100021.134
100020.072
100019.113
100018.236
100017.414
100016.634
100015.889
100015.168
100014.464
100013.775
100013.101
100012.439
100011.785
100011.141
100010.506
100009.874
100009.249
100008.63
100008.015
100007.403
100006.794
100006.186
100005.582
100004.981
100004.381
100003.781
100003.18
100002.572
100001.969
100001.307
100000.708
99999.8747
99999.3129
99998.0142
99997.7344
100028.66
100026.599
100025.25
100023.665
100022.331
100021.116
100020.058
100019.104
100018.231
100017.411
100016.632
100015.887
100015.166
100014.462
100013.773
100013.1
100012.437
100011.784
100011.14
100010.504
100009.873
100009.249
100008.629
100008.014
100007.403
100006.793
100006.186
100005.582
100004.981
100004.382
100003.784
100003.188
100002.582
100001.994
100001.337
100000.802
100000.001
99999.5814
99998.5556
99998.5113
100028.778
100026.624
100025.248
100023.639
100022.297
100021.086
100020.035
100019.088
100018.221
100017.405
100016.628
100015.884
100015.164
100014.461
100013.771
100013.098
100012.436
100011.783
100011.139
100010.503
100009.872
100009.248
100008.629
100008.013
100007.402
100006.793
100006.185
100005.582
100004.982
100004.383
100003.787
100003.194
100002.592
100002.009
100001.375
100000.85
100000.153
99999.7607
99999.065
99999.0327
100029.077
100026.714
100025.288
100023.632
100022.268
100021.053
100020.007
100019.067
100018.206
100017.395
100016.621
100015.879
100015.161
100014.458
100013.769
100013.096
100012.434
100011.781
100011.138
100010.502
100009.871
100009.247
100008.628
100008.013
100007.401
100006.792
100006.185
100005.582
100004.982
100004.384
100003.788
100003.196
100002.601
100002.021
100001.413
100000.899
100000.254
99999.9242
99999.2948
99999.3672
100029.29
100026.617
100025.178
100023.512
100022.172
100020.984
100019.964
100019.041
100018.191
100017.386
100016.616
100015.875
100015.156
100014.453
100013.766
100013.093
100012.431
100011.778
100011.135
100010.499
100009.869
100009.245
100008.625
100008.01
100007.399
100006.79
100006.184
100005.581
100004.98
100004.383
100003.788
100003.196
100002.603
100002.027
100001.429
100000.919
100000.307
99999.994
99999.3923
99999.5273
100030.61
100026.848
100025.262
100023.516
100022.155
100020.961
100019.942
100019.022
100018.175
100017.374
100016.608
100015.869
100015.149
100014.449
100013.763
100013.09
100012.428
100011.776
100011.132
100010.497
100009.868
100009.243
100008.624
100008.009
100007.397
100006.789
100006.184
100005.58
100004.98
100004.383
100003.787
100003.194
100002.603
100002.029
100001.432
100000.923
100000.312
100000.005
99999.4017
99999.5453
99993.9449
100009.571
100000.184
100000.528
99999.7418
99999.5834
99999.6176
99999.8742
100000.027
100000.092
100000.095
99999.9971
99999.9936
100000.082
100000.189
100000.287
100000.35
100000.36
100000.332
100000.35
100000.424
100000.499
100000.553
100000.587
100000.594
100000.572
100000.535
100000.523
100000.554
100000.596
100000.615
100000.614
100000.605
100000.588
100000.561
100000.537
100000.536
100000.562
100000.601
100000.639
100000.669
100000.692
100000.705
100000.715
100000.717
100000.716
100000.725
100000.74
100000.75
100000.748
100000.737
100000.718
100000.695
100000.672
100000.655
100000.649
100000.657
100000.677
100000.698
100000.72
100000.742
100000.767
100000.795
100000.822
100000.854
100000.882
100000.904
100000.92
100000.928
100000.93
100000.93
100000.928
100000.932
100000.936
100000.943
100000.946
100000.95
100000.958
100000.965
100000.976
100000.989
100001.001
100001.014
100001.028
100001.043
100001.056
100001.066
100001.076
100001.084
100001.088
100001.09
100001.088
100001.085
100001.079
100001.072
100001.063
100001.054
100001.045
100001.038
100001.034
100001.031
100001.03
100001.03
100001.031
100001.031
100001.032
100001.031
100001.031
100001.029
100001.027
100001.023
100001.019
100001.013
100001.006
100000.996
100000.983
100000.966
100000.943
100000.913
100000.874
100000.825
100000.766
100000.698
100000.625
100000.552
100000.487
100000.434
100000.394
100000.37
100000.357
100000.355
100000.358
100000.365
100000.373
100000.38
100000.385
100000.387
100000.386
100000.381
100000.372
100000.362
100000.352
100000.347
100000.348
100000.352
100000.355
100000.355
100000.352
100000.345
100000.335
100000.322
100000.308
100000.293
100000.278
100000.262
100000.247
100000.232
100000.218
100000.204
100000.192
100000.18
100000.169
100000.16
100000.151
100000.143
100000.136
100000.13
100000.125
100000.12
100000.115
100000.112
100000.112
100000.115
100000.115
100000.103
100000.089
100000.095
100000.124
100000.118
100000.045
100000.054
100000.304
100000.458
99999.9396
99999.2708
100000.015
100001.841
100001.327
99997.2625
99995.9247
100002.885
100008.222
100000.062
99985.7466
99991.8759
100017.098
100021.472
99990.5826
99961.2365
99988.5441
100042.738
100038.854
99971.5795
99937.8657
99996.4968
100060.998
100036.793
99956.6353
99940.7052
100009.967
100055.747
100019.745
99956.1353
99959.186
100017.81
100041.392
100007.597
99972.6046
99983.1787
100013.597
100018.646
99999.6372
99987.4565
99995.5513
100006.294
100004.859
99998.1471
99996.8976
100000.131
100001.698
100000.738
99999.7525
99999.797
100000.149
100000.165
99999.9519
99999.817
99999.7787
99999.8998
99999.8969
99999.8816
99999.8948
99999.9262
99999.9444
99999.949
99999.9578
99999.9749
99999.9901
99999.998
100000.002
100000.007
100000.013
100000.018
100000.024
100000.032
100000.039
100000.033
100000.022
100000.032
100000.048
100000.021
99999.9679
99999.9866
100000.049
100000.026
99999.9328
99999.9498
100000.001
100000.02
99999.9507
99993.2145
100004.57
100000.595
100001.169
100000.412
99999.8592
99999.5682
99999.7478
99999.8794
99999.9549
99999.9827
99999.9246
99999.9597
100000.058
100000.152
100000.225
100000.254
100000.227
100000.164
100000.153
100000.209
100000.275
100000.324
100000.355
100000.358
100000.332
100000.294
100000.285
100000.325
100000.374
100000.396
100000.398
100000.392
100000.376
100000.349
100000.324
100000.324
100000.353
100000.394
100000.431
100000.46
100000.481
100000.492
100000.496
100000.494
100000.493
100000.505
100000.525
100000.54
100000.545
100000.539
100000.525
100000.505
100000.486
100000.473
100000.471
100000.482
100000.502
100000.524
100000.545
100000.566
100000.588
100000.614
100000.64
100000.667
100000.694
100000.716
100000.731
100000.739
100000.742
100000.744
100000.745
100000.752
100000.76
100000.772
100000.78
100000.789
100000.8
100000.81
100000.824
100000.839
100000.854
100000.87
100000.886
100000.904
100000.921
100000.936
100000.95
100000.961
100000.971
100000.977
100000.98
100000.981
100000.98
100000.978
100000.974
100000.969
100000.964
100000.962
100000.961
100000.962
100000.964
100000.966
100000.97
100000.973
100000.975
100000.977
100000.978
100000.978
100000.977
100000.975
100000.971
100000.966
100000.959
100000.949
100000.936
100000.917
100000.893
100000.861
100000.821
100000.772
100000.714
100000.649
100000.58
100000.514
100000.456
100000.409
100000.374
100000.353
100000.343
100000.342
100000.346
100000.352
100000.359
100000.366
100000.37
100000.371
100000.369
100000.363
100000.355
100000.346
100000.339
100000.337
100000.34
100000.344
100000.347
100000.347
100000.343
100000.336
100000.326
100000.314
100000.3
100000.286
100000.271
100000.256
100000.241
100000.227
100000.213
100000.2
100000.188
100000.177
100000.166
100000.157
100000.149
100000.141
100000.134
100000.128
100000.123
100000.119
100000.115
100000.111
100000.111
100000.115
100000.115
100000.103
100000.089
100000.095
100000.122
100000.118
100000.054
100000.063
100000.288
100000.434
99999.9695
99999.3565
100000.016
100001.676
100001.251
99997.5904
99996.315
100002.572
100007.491
100000.236
99987.1433
99992.5757
100015.505
100019.697
99991.7991
99964.7764
99989.258
100039.039
100036.105
99974.5294
99943.0572
99996.6493
100056.263
100034.321
99960.6053
99945.8106
100009.394
100051.335
100018.937
99960.4761
99962.4898
100016.966
100038.915
100007.762
99975.4831
99985.1126
100013.214
100017.833
100000.328
99989.1463
99996.5086
100006.283
100004.907
99998.7239
99997.5268
100000.387
100001.753
100000.834
99999.8935
99999.9005
100000.194
100000.186
99999.977
99999.8494
99999.8253
99999.9077
99999.9066
99999.8918
99999.9039
99999.9319
99999.9482
99999.9527
99999.9612
99999.9772
99999.9915
99999.9989
100000.003
100000.008
100000.013
100000.019
100000.024
100000.032
100000.038
100000.033
100000.023
100000.031
100000.046
100000.02
99999.9714
99999.9879
100000.044
100000.023
99999.9378
99999.9532
99999.9977
100000.018
99999.9525
99996.6624
100003.884
100000.39
100000.597
99999.9902
99999.8589
99999.8559
99999.9737
100000.007