/*--------------------------------*- C++ -*----------------------------------*\
  =========                 |
  \\      /  F ield         | OpenFOAM: The Open Source CFD Toolbox
   \\    /   O peration     | Website:  https://openfoam.org
    \\  /    A nd           | Version:  6
     \\/     M anipulation  |
\*---------------------------------------------------------------------------*/
FoamFile
{
    version     2.0;
    format      ascii;
    class       surfaceScalarField;
    location    "25000";
    object      phi;
}
// * * * * * * * * * * * * * * * * * * * * * * * * * * * * * * * * * * * * * //

dimensions      [1 0 -1 0 0 0 0];

internalField   nonuniform List<scalar> 
89205
(
4.73574198e-07
-6.94669118e-10
4.74359587e-07
-7.85433976e-10
4.75434139e-07
-1.07459754e-09
4.76680417e-07
-1.24632386e-09
4.78004954e-07
-1.32458469e-09
4.79378095e-07
-1.37318868e-09
4.80800173e-07
-1.42212706e-09
4.82253941e-07
-1.45381695e-09
4.83746138e-07
-1.49224624e-09
4.85259473e-07
-1.51338484e-09
4.86802079e-07
-1.54265569e-09
4.88359431e-07
-1.55740183e-09
4.89938653e-07
-1.57927139e-09
4.91524176e-07
-1.58557242e-09
4.93124547e-07
-1.60041892e-09
4.94724468e-07
-1.59996892e-09
4.96334582e-07
-1.61016049e-09
4.97940636e-07
-1.60609952e-09
4.99551215e-07
-1.6106233e-09
5.01152933e-07
-1.60176096e-09
5.02755915e-07
-1.60302303e-09
5.04346726e-07
-1.59085076e-09
5.05935831e-07
-1.58914352e-09
5.07510704e-07
-1.5749086e-09
5.09081121e-07
-1.57045137e-09
5.1063611e-07
-1.55502206e-09
5.121838e-07
-1.54772037e-09
5.13716788e-07
-1.53301714e-09
5.15238407e-07
-1.52164525e-09
5.16748148e-07
-1.50976673e-09
5.18240523e-07
-1.4923978e-09
5.19728284e-07
-1.48778173e-09
5.21188841e-07
-1.46057484e-09
5.22657755e-07
-1.4689311e-09
5.24100534e-07
-1.44279225e-09
5.25588101e-07
-1.48757749e-09
5.27065875e-07
-1.47778186e-09
5.28940933e-07
-1.87506304e-09
5.30464542e-07
-1.5236112e-09
-6.28556933e-09
5.36750112e-07
1.42090407e-06
-2.96033104e-09
1.42346517e-06
-3.34666763e-09
1.42662843e-06
-4.23799092e-09
1.43029017e-06
-4.90820031e-09
1.43418238e-06
-5.21694165e-09
1.43823782e-06
-5.42876589e-09
1.44244535e-06
-5.62980333e-09
1.44675408e-06
-5.76269713e-09
1.45117986e-06
-5.91817206e-09
1.45566941e-06
-6.00309145e-09
1.46024508e-06
-6.11847068e-09
1.46486433e-06
-6.17680501e-09
1.46953904e-06
-6.25412359e-09
1.47424075e-06
-6.28742904e-09
1.47897739e-06
-6.33720818e-09
1.48371281e-06
-6.3355356e-09
1.48847055e-06
-6.3680368e-09
1.49321298e-06
-6.34866232e-09
1.4979613e-06
-6.35907683e-09
1.50268519e-06
-6.32578395e-09
1.50740207e-06
-6.32003187e-09
1.51208541e-06
-6.27430745e-09
1.51675197e-06
-6.25581183e-09
1.52137854e-06
-6.20159256e-09
1.52597987e-06
-6.17188251e-09
1.53053699e-06
-6.11223869e-09
1.53506046e-06
-6.07128447e-09
1.53954067e-06
-6.01330942e-09
1.54397586e-06
-5.95692014e-09
1.54837373e-06
-5.90770668e-09
1.55271082e-06
-5.82955773e-09
1.55702862e-06
-5.80564625e-09
1.56125416e-06
-5.68617164e-09
1.56550623e-06
-5.72104447e-09
1.56963956e-06
-5.5761629e-09
1.57392472e-06
-5.77277894e-09
1.57800929e-06
-5.56236763e-09
1.58341767e-06
-7.28346167e-09
1.58817771e-06
-6.28365471e-09
-2.55943899e-08
1.60748653e-06
2.36792435e-06
-6.43323229e-09
2.37237604e-06
-7.79858469e-09
2.37798372e-06
-9.84590001e-09
2.38424622e-06
-1.11709363e-08
2.39069077e-06
-1.16617295e-08
2.39728477e-06
-1.20230016e-08
2.40403379e-06
-1.23790697e-08
2.41090051e-06
-1.26296631e-08
2.41789173e-06
-1.29096413e-08
2.42496321e-06
-1.30748195e-08
2.43211151e-06
-1.32670217e-08
2.4393257e-06
-1.33912429e-08
2.44658003e-06
-1.3508696e-08
2.45383924e-06
-1.35468906e-08
2.46111139e-06
-1.36096022e-08
2.4683703e-06
-1.35946802e-08
2.47560844e-06
-1.360641e-08
2.48280111e-06
-1.3541563e-08
2.48995325e-06
-1.35114388e-08
2.49703313e-06
-1.34058696e-08
2.50405395e-06
-1.33410669e-08
2.51098377e-06
-1.32043211e-08
2.51783754e-06
-1.31097701e-08
2.52458478e-06
-1.29490148e-08
2.53124063e-06
-1.28278989e-08
2.53777614e-06
-1.26479166e-08
2.54420681e-06
-1.25021095e-08
2.55050881e-06
-1.23154504e-08
2.55668672e-06
-1.21349657e-08
2.56273683e-06
-1.19579343e-08
2.56863159e-06
-1.17244299e-08
2.57442764e-06
-1.16018052e-08
2.58000553e-06
-1.12641554e-08
2.5855176e-06
-1.12331928e-08
2.59079418e-06
-1.08528105e-08
2.5961356e-06
-1.11142522e-08
2.60129429e-06
-1.07210958e-08
2.6078118e-06
-1.38009968e-08
2.61543116e-06
-1.3903026e-08
-5.47958243e-08
2.6446326e-06
3.31402478e-06
-1.03797548e-08
3.31871902e-06
-1.24931357e-08
3.32429761e-06
-1.54248156e-08
3.33095443e-06
-1.78280796e-08
3.33779964e-06
-1.85072743e-08
3.34467577e-06
-1.8899466e-08
3.3514111e-06
-1.9114739e-08
3.3580541e-06
-1.9273008e-08
3.36450082e-06
-1.93567079e-08
3.37077163e-06
-1.93459755e-08
3.37680136e-06
-1.92970936e-08
3.38261684e-06
-1.92070733e-08
3.38813369e-06
-1.90258848e-08
3.39342992e-06
-1.88434575e-08
3.39839138e-06
-1.85714037e-08
3.40310885e-06
-1.83124801e-08
3.40746718e-06
-1.79650557e-08
3.4115836e-06
-1.76583027e-08
3.4153253e-06
-1.72534408e-08
3.41882639e-06
-1.69072532e-08
3.42194999e-06
-1.64649494e-08
3.42483957e-06
-1.60941689e-08
3.427353e-06
-1.56234586e-08
3.42964234e-06
-1.52386038e-08
3.43156193e-06
-1.47477229e-08
3.43326419e-06
-1.4350394e-08
3.4346084e-06
-1.38465271e-08
3.43574902e-06
-1.34562681e-08
3.43653486e-06
-1.29209905e-08
3.43714043e-06
-1.25636703e-08
3.43739166e-06
-1.19758102e-08
3.43748848e-06
-1.16987707e-08
3.43721417e-06
-1.09899712e-08
3.43678155e-06
-1.08006801e-08
3.43607908e-06
-1.01504288e-08
3.43519301e-06
-1.02282638e-08
3.43423474e-06
-9.76287238e-09
3.43399462e-06
-1.35609087e-08
3.43373675e-06
-1.36451682e-08
-9.36391389e-08
3.47258007e-06
4.24617368e-06
4.23368015e-06
4.21825493e-06
4.20042644e-06
4.18191875e-06
4.16301886e-06
4.1439037e-06
4.12463026e-06
4.10527312e-06
4.08592671e-06
4.06662918e-06
4.04742167e-06
4.02839536e-06
4.00955147e-06
3.99097965e-06
3.97266676e-06
3.9547013e-06
3.9370426e-06
3.91978878e-06
3.90288116e-06
3.88641585e-06
3.87032135e-06
3.85469756e-06
3.83945865e-06
3.82471064e-06
3.81035997e-06
3.79651318e-06
3.78305667e-06
3.77013545e-06
3.75757156e-06
3.74559556e-06
3.73389661e-06
3.72290648e-06
3.71210567e-06
3.70195512e-06
3.69172677e-06
3.68196383e-06
3.66840288e-06
3.6547577e-06
3.56111858e-06
5.39706799e-07
-2.9566845e-09
5.4129523e-07
-1.5884364e-09
5.4187516e-07
-5.79940937e-10
5.42097218e-07
-2.22068638e-10
5.42178701e-07
-8.14964126e-11
5.42189883e-07
-1.11797645e-11
5.42149826e-07
4.00603084e-11
5.42088697e-07
6.1128377e-11
5.42020755e-07
6.79352365e-11
5.41944939e-07
7.57981784e-11
5.41862226e-07
8.2685592e-11
5.41766088e-07
9.61025372e-11
5.41644408e-07
1.21648378e-10
5.41504827e-07
1.3955877e-10
5.41351398e-07
1.53417577e-10
5.41179482e-07
1.71909298e-10
5.40994379e-07
1.85100245e-10
5.40787261e-07
2.07121553e-10
5.4055384e-07
2.33423414e-10
5.40282097e-07
2.71745795e-10
5.39970863e-07
3.11235717e-10
5.39621893e-07
3.48972299e-10
5.39222454e-07
3.99438847e-10
5.38772717e-07
4.49733908e-10
5.38257278e-07
5.15437045e-10
5.37670557e-07
5.86716046e-10
5.36995526e-07
6.75029192e-10
5.3621467e-07
7.8085918e-10
5.35316543e-07
8.98134333e-10
5.34281598e-07
1.03495805e-09
5.33099317e-07
1.1822943e-09
5.31737296e-07
1.36203982e-09
5.30177364e-07
1.55994889e-09
5.28390644e-07
1.78673551e-09
5.26346787e-07
2.04386084e-09
5.24015452e-07
2.33132194e-09
5.21359884e-07
2.65552929e-09
5.18351565e-07
3.00824197e-09
5.14955459e-07
3.39598827e-09
5.11139618e-07
3.81568283e-09
5.06867765e-07
4.27166808e-09
5.02107284e-07
4.7602876e-09
4.96825987e-07
5.28110981e-09
4.90998755e-07
5.82707871e-09
4.8460971e-07
6.3888961e-09
4.77643471e-07
6.96607442e-09
4.70094145e-07
7.54912641e-09
4.61970341e-07
8.12355729e-09
4.53292435e-07
8.67761584e-09
4.44085491e-07
9.20663238e-09
4.34385393e-07
9.69979637e-09
4.2423865e-07
1.01464953e-08
4.13698802e-07
1.05396937e-08
4.02828913e-07
1.08698586e-08
3.91698788e-07
1.11302335e-08
3.80384858e-07
1.13141649e-08
3.68966004e-07
1.14191826e-08
3.57520207e-07
1.14461733e-08
3.46121407e-07
1.13991695e-08
3.34834298e-07
1.12874285e-08
3.23715222e-07
1.1119313e-08
3.12808384e-07
1.09069846e-08
3.02149462e-07
1.06589861e-08
2.91762707e-07
1.03867659e-08
2.81665062e-07
1.00976399e-08
2.71866496e-07
9.79858061e-09
2.62372279e-07
9.494274e-09
2.53183825e-07
9.1885558e-09
2.44301152e-07
8.88279912e-09
2.35723961e-07
8.57730348e-09
2.27451742e-07
8.27227681e-09
2.19484701e-07
7.96701292e-09
2.1182238e-07
7.66219628e-09
2.04463929e-07
7.3582449e-09
1.97406005e-07
7.05767275e-09
1.90645072e-07
6.76068736e-09
1.84176416e-07
6.46846939e-09
1.77990812e-07
6.18551881e-09
1.72078076e-07
5.91277683e-09
1.66426329e-07
5.65192275e-09
1.61023134e-07
5.40349047e-09
1.55855355e-07
5.16816616e-09
1.50909781e-07
4.9460136e-09
1.46173799e-07
4.73642759e-09
1.41636115e-07
4.53809332e-09
1.3728631e-07
4.3501392e-09
1.33114546e-07
4.17199785e-09
1.29112385e-07
4.00227645e-09
1.25271566e-07
3.84081337e-09
1.21584427e-07
3.68702074e-09
1.1804385e-07
3.54036062e-09
1.14642864e-07
3.4006974e-09
1.11374819e-07
3.26771322e-09
1.08233518e-07
3.14096032e-09
1.05213352e-07
3.01984778e-09
1.02308799e-07
2.90427983e-09
9.95143807e-08
2.79420614e-09
9.6824541e-08
2.68969006e-09
9.42337968e-08
2.59064921e-09
9.17374386e-08
2.49630601e-09
8.93307363e-08
2.40666467e-09
8.70083716e-08
2.32232599e-09
8.4765525e-08
2.24279786e-09
8.2597577e-08
2.16788724e-09
8.05001003e-08
2.0974092e-09
7.84687284e-08
2.03130696e-09
7.64995294e-08
1.96914746e-09
7.45887235e-08
1.91077928e-09
7.27325793e-08
1.85614946e-09
7.09275581e-08
1.80506219e-09
6.91702207e-08
1.75741175e-09
6.74573577e-08
1.71296718e-09
6.57856742e-08
1.67180959e-09
6.41518389e-08
1.63397249e-09
6.25525754e-08
1.59940091e-09
6.09846553e-08
1.56804785e-09
5.94448721e-08
1.53989351e-09
5.79301417e-08
1.51481779e-09
5.64378148e-08
1.49238888e-09
5.49659645e-08
1.47188678e-09
5.35140158e-08
1.4519623e-09
5.20836416e-08
1.43036911e-09
5.06794882e-08
1.40413566e-09
4.93096437e-08
1.36981911e-09
4.79845919e-08
1.32502765e-09
4.67150349e-08
1.26953759e-09
4.55095858e-08
1.20543634e-09
4.43729837e-08
1.1365958e-09
4.33057221e-08
1.06726015e-09
4.23047613e-08
1.00096267e-09
4.13648628e-08
9.39901833e-10
4.04796853e-08
8.85181e-10
3.96426128e-08
8.37075253e-10
3.88474672e-08
7.95147125e-10
3.80887833e-08
7.58684174e-10
3.73619162e-08
7.26866329e-10
3.66631004e-08
6.98814507e-10
3.5989455e-08
6.73643755e-10
3.53388578e-08
6.50595645e-10
3.47110319e-08
6.2782474e-10
3.41072081e-08
6.0382349e-10
3.35291722e-08
5.78037556e-10
3.29795869e-08
5.49590625e-10
3.24597599e-08
5.19843123e-10
3.1967106e-08
4.92668712e-10
3.14963329e-08
4.70797814e-10
3.10426291e-08
4.5372564e-10
3.06030264e-08
4.39623693e-10
3.01759237e-08
4.27122525e-10
2.97606128e-08
4.15328434e-10
2.93570193e-08
4.03607882e-10
2.89653269e-08
3.91703205e-10
2.85859073e-08
3.79426747e-10
2.82191766e-08
3.66734614e-10
2.78654235e-08
3.53754464e-10
2.75248576e-08
3.40565965e-10
2.71976196e-08
3.27237915e-10
2.68837539e-08
3.13866588e-10
2.65832042e-08
3.00552315e-10
2.62958163e-08
2.87392103e-10
2.60213486e-08
2.74473871e-10
2.57594786e-08
2.61878011e-10
2.55098168e-08
2.49670954e-10
2.52719183e-08
2.3790811e-10
2.50452945e-08
2.26633379e-10
2.48294241e-08
2.1587893e-10
2.46237645e-08
2.05666086e-10
2.44277603e-08
1.96007556e-10
2.42408539e-08
1.86906149e-10
2.40624913e-08
1.78358791e-10
2.38921422e-08
1.70340515e-10
2.37291937e-08
1.62930463e-10
2.35733005e-08
1.55858732e-10
2.34241735e-08
1.49077888e-10
2.32811115e-08
1.43014746e-10
2.31438849e-08
1.3719472e-10
2.30123933e-08
1.31440388e-10
2.28862997e-08
1.25987349e-10
2.27649424e-08
1.21283047e-10
2.26473442e-08
1.17677964e-10
2.25336731e-08
1.13703371e-10
2.24260157e-08
1.07200535e-10
2.23247759e-08
1.00592211e-10
2.22258197e-08
9.9354177e-11
2.21267099e-08
1.00543193e-10
2.20355146e-08
9.09584048e-11
2.19635849e-08
6.84926694e-11
2.18973272e-08
6.45028066e-11
2.18042514e-08
9.88922055e-11
2.1692868e-08
1.18309741e-10
2.16372751e-08
4.91851255e-11
2.16298679e-08
-7.41855309e-12
2.15896601e-08
4.31869917e-11
2.14305887e-08
1.85451025e-10
2.12979299e-08
1.43780358e-10
2.13276495e-08
-6.39122333e-11
2.14229328e-08
-1.3163811e-10
2.13617609e-08
8.60427458e-11
2.09767804e-08
4.52317432e-10
2.08639885e-08
1.23127827e-10
2.11530477e-08
-3.69989142e-10
2.14713092e-08
-3.7670996e-10
2.12212116e-08
3.11004758e-10
2.06179317e-08
7.09159929e-10
2.0698905e-08
-8.78853941e-11
2.11249861e-08
-5.50964881e-10
2.14501514e-08
-3.83602434e-10
2.11745936e-08
3.68611949e-10
2.06550538e-08
6.23537132e-10
2.07480614e-08
-1.24389467e-10
2.1052756e-08
-4.16678412e-10
2.11181918e-08
-9.0266874e-11
2.06319e-08
5.73943108e-10
2.01992398e-08
4.98440602e-10
2.02512296e-08
-9.31191059e-11
2.0418518e-08
-2.43197298e-10
2.0407693e-08
3.62345366e-12
1.99981944e-08
4.59880889e-10
1.96762432e-08
3.46626153e-10
1.96037216e-08
4.50443508e-11
1.95118241e-08
5.92710333e-11
1.92770322e-08
2.36884586e-10
1.88401398e-08
4.57583172e-10
1.84935878e-08
3.51253318e-10
1.83007964e-08
1.7950798e-10
1.81339875e-08
1.57729788e-10
1.79688315e-08
1.68502312e-10
1.78610158e-08
1.12753801e-10
1.78570051e-08
2.95280247e-12
1.79254887e-08
-7.19239205e-11
1.80163368e-08
-9.20802932e-11
1.81106064e-08
-9.35484872e-11
1.82064025e-08
-9.51983296e-11
1.82952596e-08
-8.90228227e-11
1.83660271e-08
-7.10444003e-11
1.83953281e-08
-2.91751049e-11
1.84071915e-08
-1.14854651e-11
1.84511354e-08
-4.36444563e-11
1.84616868e-08
-1.04011589e-11
1.84325568e-08
2.92177422e-11
1.83954792e-08
3.71666206e-11
1.8354615e-08
4.08985648e-11
1.83116022e-08
4.29621609e-11
1.82677394e-08
4.37693002e-11
1.82243451e-08
4.32966928e-11
1.81826101e-08
4.16276529e-11
1.81434079e-08
3.90708551e-11
1.81071343e-08
3.61266098e-11
1.80737366e-08
3.32548031e-11
1.80428026e-08
3.08028811e-11
1.80136692e-08
2.90109063e-11
1.79854612e-08
2.80890965e-11
1.79573752e-08
2.79671271e-11
1.79283857e-08
2.88618265e-11
1.78995119e-08
2.87231369e-11
1.7866514e-08
3.28238079e-11
1.78281933e-08
3.81573308e-11
1.77886733e-08
3.93731063e-11
1.77478784e-08
4.0614299e-11
1.77067923e-08
4.08661934e-11
1.76654302e-08
4.12334554e-11
1.76241256e-08
4.1332258e-11
1.75839708e-08
4.01451164e-11
1.75465771e-08
3.72333467e-11
1.75105342e-08
3.60021667e-11
1.74763891e-08
3.43895787e-11
1.74436844e-08
3.29390585e-11
1.74165931e-08
2.71585268e-11
1.73886994e-08
2.80395654e-11
2.17620932e-11
1.61618409e-06
-1.16542302e-08
1.62067929e-06
-6.0836515e-09
1.62180714e-06
-1.70782998e-09
1.62187164e-06
-2.86603978e-10
1.62158556e-06
2.04548243e-10
1.62117057e-06
4.03803885e-10
1.62056398e-06
6.46672234e-10
1.61987442e-06
7.50690012e-10
1.61911874e-06
8.23594073e-10
1.61825745e-06
9.37034777e-10
1.61730535e-06
1.03470904e-09
1.61619545e-06
1.20589198e-09
1.61488215e-06
1.4348471e-09
1.61336186e-06
1.65977734e-09
1.6116226e-06
1.89264189e-09
1.60962661e-06
2.16787104e-09
1.60735795e-06
2.45374252e-09
1.60476051e-06
2.80456707e-09
1.60178333e-06
3.2105965e-09
1.59837846e-06
3.6766126e-09
1.59449559e-06
4.19410004e-09
1.59011134e-06
4.73320929e-09
1.58516558e-06
5.34518082e-09
1.57961861e-06
5.99667158e-09
1.57341825e-06
6.71577943e-09
1.56651355e-06
7.49141856e-09
1.55884703e-06
8.34160862e-09
1.55036185e-06
9.26618823e-09
1.54102402e-06
1.02361881e-08
1.53080325e-06
1.12560316e-08
1.51967691e-06
1.23089856e-08
1.50761058e-06
1.3428738e-08
1.494607e-06
1.45638556e-08
1.48065024e-06
1.57437181e-08
1.46573831e-06
1.69558731e-08
1.44988682e-06
1.81827141e-08
1.43311606e-06
1.94259982e-08
1.41546396e-06
2.06598825e-08
1.39697182e-06
2.18875337e-08
1.37768542e-06
2.31014153e-08
1.35764757e-06
2.43088297e-08
1.33691255e-06
2.5494645e-08
1.3155278e-06
2.66652454e-08
1.29354952e-06
2.78048215e-08
1.27103342e-06
2.8904485e-08
1.24801635e-06
2.99826478e-08
1.22454493e-06
3.10200624e-08
1.20066752e-06
3.2000521e-08
1.17642992e-06
3.29148376e-08
1.15188381e-06
3.37524566e-08
1.1270571e-06
3.45263363e-08
1.10199226e-06
3.52112844e-08
1.07672553e-06
3.58064785e-08
1.05129588e-06
3.62996832e-08
1.02574417e-06
3.66822011e-08
1.0001204e-06
3.69382564e-08
9.74478113e-07
3.70618139e-08
9.48876432e-07
3.70481836e-08
9.23377851e-07
3.68980295e-08
8.98040131e-07
3.6625349e-08
8.72923633e-07
3.6235924e-08
8.48079173e-07
3.57514821e-08
8.23558503e-07
3.51796548e-08
7.99400297e-07
3.45449842e-08
7.75642192e-07
3.38558284e-08
7.52314801e-07
3.31261651e-08
7.29443603e-07
3.23657819e-08
7.07049663e-07
3.1582887e-08
6.85155171e-07
3.0777685e-08
6.63780634e-07
2.99521418e-08
6.42949276e-07
2.91037434e-08
6.22682736e-07
2.82334167e-08
6.03004041e-07
2.73404978e-08
5.83932089e-07
2.6429608e-08
5.65480694e-07
2.55083888e-08
5.47660345e-07
2.45804146e-08
5.30478697e-07
2.36496812e-08
5.13930673e-07
2.27333995e-08
4.98002748e-07
2.184091e-08
4.82679575e-07
2.09756679e-08
4.67941786e-07
2.01421724e-08
4.53765591e-07
1.934549e-08
4.40126149e-07
1.85867093e-08
4.26999198e-07
1.786463e-08
4.14362805e-07
1.71756155e-08
4.02196867e-07
1.65169837e-08
3.90481188e-07
1.58882866e-08
3.79198726e-07
1.52850106e-08
3.68332434e-07
1.47070339e-08
3.57866012e-07
1.41530484e-08
3.47784689e-07
1.36210171e-08
3.38072213e-07
1.3112305e-08
3.28713665e-07
1.26252804e-08
3.19695431e-07
1.21581954e-08
3.11004722e-07
1.17096279e-08
3.02628416e-07
1.1279794e-08
2.94553253e-07
1.08687536e-08
2.8676524e-07
1.04772704e-08
2.79250763e-07
1.01048514e-08
2.71997937e-07
9.74897952e-09
2.64994608e-07
9.40988228e-09
2.5822647e-07
9.09034918e-09
2.51680706e-07
8.78841994e-09
2.45344917e-07
8.50350112e-09
2.39207108e-07
8.23502604e-09
2.33255456e-07
7.9827782e-09
2.27479251e-07
7.74521204e-09
2.21868137e-07
7.52182704e-09
2.16411775e-07
7.31253842e-09
2.11100502e-07
7.11646564e-09
2.05924727e-07
6.93341489e-09
2.00875392e-07
6.76261558e-09
1.95943136e-07
6.60444424e-09
1.91118736e-07
6.4587821e-09
1.86392915e-07
6.32563083e-09
1.81756595e-07
6.20474625e-09
1.77200772e-07
6.09604242e-09
1.72716875e-07
5.99897188e-09
1.68297795e-07
5.91164918e-09
1.63938628e-07
5.83115842e-09
1.59638667e-07
5.75195894e-09
1.5540388e-07
5.66513758e-09
1.51248794e-07
5.55916576e-09
1.47197541e-07
5.42099545e-09
1.43280653e-07
5.24184394e-09
1.39528603e-07
5.02153122e-09
1.35965463e-07
4.76854007e-09
1.32604173e-07
4.49786819e-09
1.29445584e-07
4.22584742e-09
1.26480663e-07
3.96588959e-09
1.23694092e-07
3.72648277e-09
1.21067492e-07
3.51179215e-09
1.18581706e-07
3.32286946e-09
1.16218892e-07
3.15796563e-09
1.13963218e-07
3.0143584e-09
1.11801264e-07
2.88881795e-09
1.09722154e-07
2.77792019e-09
1.07717555e-07
2.67823831e-09
1.05781997e-07
2.58614821e-09
1.03914985e-07
2.49483347e-09
1.02120014e-07
2.39879407e-09
1.00402477e-07
2.2955799e-09
9.87697897e-08
2.18229353e-09
9.72246966e-08
2.0649722e-09
9.57585909e-08
1.95879206e-09
9.43559594e-08
1.87349858e-09
9.30032099e-08
1.80653808e-09
9.16920052e-08
1.75089078e-09
9.04178633e-08
1.70132349e-09
8.91788094e-08
1.65443453e-09
8.79746601e-08
1.60779982e-09
8.68059608e-08
1.5604347e-09
8.5673825e-08
1.51158408e-09
8.45794694e-08
1.46110207e-09
8.35237249e-08
1.40950331e-09
8.25072351e-08
1.35705677e-09
8.15304151e-08
1.30405878e-09
8.05933965e-08
1.25088859e-09
7.96960127e-08
1.19794485e-09
7.88378071e-08
1.14561101e-09
7.80180641e-08
1.0942354e-09
7.72358305e-08
1.04413632e-09
7.64899563e-08
9.95573106e-10
7.57791194e-08
9.48773758e-10
7.51018685e-08
9.0391306e-10
7.44566536e-08
8.61119566e-10
7.38418677e-08
8.20471564e-10
7.3255867e-08
7.82018631e-10
7.2696985e-08
7.45787601e-10
7.21635567e-08
7.11776094e-10
7.16539728e-08
6.79898367e-10
7.11664471e-08
6.50401819e-10
7.0699965e-08
6.22236658e-10
7.02539177e-08
5.94976675e-10
6.9826011e-08
5.70778029e-10
6.94147208e-08
5.48389405e-10
6.9020519e-08
5.25487657e-10
6.86438187e-08
5.02368026e-10
6.82816489e-08
4.83229045e-10
6.79266918e-08
4.72870657e-10
6.75804602e-08
4.60030153e-10
6.72614997e-08
4.24796189e-10
6.69733807e-08
3.86771136e-10
6.66748949e-08
3.99024504e-10
6.6338507e-08
4.41218502e-10
6.60423773e-08
3.86376386e-10
6.58924127e-08
2.0817886e-10
6.57772935e-08
1.74392066e-10
6.54025369e-08
4.90972704e-10
6.48439599e-08
6.97560908e-10
6.47387055e-08
1.35160687e-10
6.50698789e-08
-3.82965507e-10
6.50792129e-08
4.26856896e-11
6.40334492e-08
1.31048821e-09
6.31540764e-08
1.05659752e-09
6.3897367e-08
-9.10749557e-10
6.5115283e-08
-1.45938852e-09
6.48189807e-08
4.57426331e-10
6.204589e-08
3.43024e-09
6.10730956e-08
1.12711739e-09
6.35806191e-08
-3.12578872e-09
6.61879922e-08
-3.16420303e-09
6.45270885e-08
2.15818596e-09
6.0071593e-08
5.48878963e-09
6.02066343e-08
-2.44854073e-10
6.38627546e-08
-4.58993654e-09
6.64182231e-08
-3.1173433e-09
6.40583537e-08
3.01453122e-09
5.99809244e-08
5.0190379e-09
6.08317919e-08
-1.07243636e-09
6.40073507e-08
-3.93512123e-09
6.50306859e-08
-1.18905262e-09
6.1829659e-08
4.0439941e-09
5.8850775e-08
3.67852243e-09
5.99789762e-08
-1.34806807e-09
6.23251065e-08
-2.82180741e-09
6.25251759e-08
-2.17764738e-10
5.98700828e-08
3.26935638e-09
5.80219431e-08
2.26974506e-09
5.86035315e-08
-6.20879189e-10
5.93376343e-08
-7.72088082e-10
5.85446947e-08
1.03632397e-09
5.65309201e-08
2.5331179e-09
5.53106271e-08
1.58532266e-09
5.51513204e-08
2.99008275e-10
5.49009958e-08
3.81059328e-10
5.42222914e-08
8.57297113e-10
5.36772092e-08
6.72503915e-10
5.36580824e-08
1.88250181e-11
5.39282683e-08
-3.52368039e-10
5.41874448e-08
-3.54872655e-10
5.44046138e-08
-3.08553478e-10
5.46470435e-08
-3.35882678e-10
5.49058863e-08
-3.48375355e-10
5.51198721e-08
-2.85832364e-10
5.52061199e-08
-1.15028881e-10
5.52269765e-08
-3.12143382e-11
5.53695861e-08
-1.85359928e-10
5.53940675e-08
-3.44328546e-11
5.53107096e-08
1.12845231e-10
5.52005298e-08
1.47614015e-10
5.50789963e-08
1.62534165e-10
5.49518727e-08
1.69936593e-10
5.48216348e-08
1.73730133e-10
5.46912957e-08
1.73345201e-10
5.4564962e-08
1.67639322e-10
5.44459723e-08
1.57667526e-10
5.4335498e-08
1.4615945e-10
5.42331615e-08
1.3516261e-10
5.41378215e-08
1.25748978e-10
5.40478241e-08
1.18639722e-10
5.39607906e-08
1.14763503e-10
5.38743272e-08
1.14071081e-10
5.37856316e-08
1.171723e-10
5.36983593e-08
1.15542337e-10
5.35989202e-08
1.31744954e-10
5.34830523e-08
1.53534555e-10
5.33635424e-08
1.5844232e-10
5.3241121e-08
1.62495096e-10
5.31194845e-08
1.61845727e-10
5.29962118e-08
1.64121577e-10
5.28696744e-08
1.6795247e-10
5.27477126e-08
1.62078637e-10
5.26382474e-08
1.46221593e-10
5.25327297e-08
1.41401316e-10
5.24261239e-08
1.41727252e-10
5.23267402e-08
1.33024508e-10
5.22450489e-08
1.09053519e-10
5.21657851e-08
1.07742106e-10
9.4153057e-11
2.652604e-06
-1.96256058e-08
2.65754267e-06
-1.10223524e-08
2.65726438e-06
-1.42959181e-09
2.65534202e-06
1.63569269e-09
2.65174899e-06
3.7975111e-09
2.64694705e-06
5.20575386e-09
2.64099457e-06
6.59919962e-09
2.63398901e-06
7.75624873e-09
2.6259247e-06
8.88787678e-09
2.61667885e-06
1.01828103e-08
2.60624507e-06
1.14683488e-08
2.59445385e-06
1.29969249e-08
2.58122462e-06
1.46638769e-08
2.56655611e-06
1.6328134e-08
2.55042763e-06
1.80209823e-08
2.53283882e-06
1.9756562e-08
2.51378959e-06
2.15028638e-08
2.49331115e-06
2.32829194e-08
2.47138415e-06
2.51374953e-08
2.44802266e-06
2.70379806e-08
2.42332536e-06
2.88912678e-08
2.39736566e-06
3.06927639e-08
2.37025671e-06
3.24540005e-08
2.3420862e-06
3.4167126e-08
2.31297112e-06
3.58309575e-08
2.28300708e-06
3.74557657e-08
2.25228877e-06
3.90604587e-08
2.22091244e-06
4.0643367e-08
2.1890077e-06
4.21419073e-08
2.1567135e-06
4.35512495e-08
2.12414399e-06
4.48793958e-08
2.0914086e-06
4.61648021e-08
2.05859908e-06
4.73737288e-08
2.02581245e-06
4.85303517e-08
1.99313045e-06
4.96375478e-08
1.96059006e-06
5.07225277e-08
1.92823626e-06
5.17790632e-08
1.89610986e-06
5.2785485e-08
1.86424142e-06
5.37552096e-08
1.83264027e-06
5.47018641e-08
1.80131686e-06
5.56316097e-08
1.77027611e-06
5.65348604e-08
1.73951063e-06
5.74302611e-08
1.70900695e-06
5.83081394e-08
1.67873876e-06
5.91723935e-08
1.64868161e-06
6.00395932e-08
1.61882302e-06
6.08785171e-08
1.58916219e-06
6.16612954e-08
1.5597132e-06
6.23638253e-08
1.53047175e-06
6.29939315e-08
1.50145383e-06
6.35442975e-08
1.47265732e-06
6.40078263e-08
1.4440758e-06
6.43880155e-08
1.41570634e-06
6.46691345e-08
1.38753589e-06
6.4852598e-08
1.35955799e-06
6.49160659e-08
1.33176157e-06
6.48580936e-08
1.30413946e-06
6.46701194e-08
1.27668438e-06
6.43528926e-08
1.24938367e-06
6.39258409e-08
1.2222317e-06
6.33876992e-08
1.19521796e-06
6.27651003e-08
1.16834334e-06
6.20542742e-08
1.14160281e-06
6.12856948e-08
1.11500638e-06
6.04526229e-08
1.08856336e-06
5.95697139e-08
1.06228806e-06
5.86417289e-08
1.03620098e-06
5.76706335e-08
1.01033263e-06
5.66465799e-08
9.84715262e-07
5.55698144e-08
9.5939227e-07
5.44267157e-08
9.34405429e-07
5.32198883e-08
9.09805245e-07
5.19399979e-08
8.85636872e-07
5.05970974e-08
8.61942778e-07
4.92015635e-08
8.38763185e-07
4.77592855e-08
8.16135459e-07
4.62770152e-08
7.94078954e-07
4.47899662e-08
7.72599864e-07
4.33205709e-08
7.51704585e-07
4.18720171e-08
7.31391303e-07
4.04569411e-08
7.11650993e-07
3.90875683e-08
6.92472333e-07
3.77672514e-08
6.73843207e-07
3.64955715e-08
6.55752992e-07
3.52674092e-08
6.38192855e-07
3.40783247e-08
6.21150829e-07
3.29310443e-08
6.046179e-07
3.18181548e-08
5.88585352e-07
3.073928e-08
5.73042586e-07
2.96950292e-08
5.5797848e-07
2.86839408e-08
5.43381061e-07
2.77082598e-08
5.29240472e-07
2.67642602e-08
5.15545807e-07
2.58512529e-08
5.02286321e-07
2.4967638e-08
4.89449758e-07
2.41151109e-08
4.77022555e-07
2.32949935e-08
4.64989494e-07
2.25096623e-08
4.53336294e-07
2.17576291e-08
4.42049701e-07
2.10353345e-08
4.31115049e-07
2.03443538e-08
4.20514094e-07
1.96911196e-08
4.10230595e-07
1.90716943e-08
4.00248496e-07
1.8485331e-08
3.90551891e-07
1.79313447e-08
3.81125102e-07
1.74093082e-08
3.71953786e-07
1.69163413e-08
3.63023798e-07
1.6451752e-08
3.54320797e-07
1.60156275e-08
3.45831471e-07
1.56060452e-08
3.37542121e-07
1.52231737e-08
3.2943968e-07
1.48655957e-08
3.21510821e-07
1.4533932e-08
3.13742194e-07
1.42280765e-08
3.0612037e-07
1.39481114e-08
2.98632306e-07
1.36934112e-08
2.91265191e-07
1.3463666e-08
2.84007197e-07
1.32573589e-08
2.76849346e-07
1.30697683e-08
2.69786655e-07
1.28939964e-08
2.62821385e-07
1.27172673e-08
2.55966587e-07
1.25198908e-08
2.49248254e-07
1.22774022e-08
2.42705845e-07
1.19632794e-08
2.36386515e-07
1.15610616e-08
2.30335206e-07
1.10727547e-08
2.24586066e-07
1.05176284e-08
2.19156294e-07
9.92761928e-09
2.14045373e-07
9.33677002e-09
2.09238546e-07
8.77273045e-09
2.04711979e-07
8.25306925e-09
2.0043733e-07
7.78645858e-09
1.96385195e-07
7.37501762e-09
1.9252816e-07
7.01500746e-09
1.88841901e-07
6.70061689e-09
1.85305807e-07
6.42490713e-09
1.81903139e-07
6.18058165e-09
1.78621231e-07
5.96013754e-09
1.75454491e-07
5.75288045e-09
1.72403197e-07
5.54611996e-09
1.69471669e-07
5.33032146e-09
1.66669121e-07
5.09813812e-09
1.64005792e-07
4.84564987e-09
1.61481689e-07
4.58913681e-09
1.59080019e-07
4.36053163e-09
1.56776674e-07
4.17694942e-09
1.54552037e-07
4.03127633e-09
1.52394162e-07
3.9088677e-09
1.5029663e-07
3.79895108e-09
1.48256615e-07
3.69453479e-09
1.4627388e-07
3.59060405e-09
1.44349369e-07
3.48499919e-09
1.42484849e-07
3.37613899e-09
1.40682219e-07
3.2637523e-09
1.38942799e-07
3.14893107e-09
1.37267659e-07
3.0321997e-09
1.35657475e-07
2.91424663e-09
1.34112459e-07
2.79591213e-09
1.3263234e-07
2.67807919e-09
1.31216382e-07
2.5615939e-09
1.29863427e-07
2.44722228e-09
1.28571934e-07
2.33567194e-09
1.2734004e-07
2.22751608e-09
1.26165596e-07
2.12326509e-09
1.25046246e-07
2.02331131e-09
1.23979469e-07
1.92794066e-09
1.22962653e-07
1.83732118e-09
1.21993122e-07
1.75156824e-09
1.21068142e-07
1.67076635e-09
1.20184974e-07
1.594925e-09
1.19340983e-07
1.52384626e-09
1.18533329e-07
1.4579648e-09
1.17760228e-07
1.39516273e-09
1.17020863e-07
1.33409216e-09
1.16311371e-07
1.28002874e-09
1.15628826e-07
1.23077893e-09
1.14974732e-07
1.17932299e-09
1.14350178e-07
1.12638396e-09
1.13748634e-07
1.0843931e-09
1.13155968e-07
1.06593145e-09
1.12578355e-07
1.03781665e-09
1.12054077e-07
9.46801348e-10
1.11583804e-07
8.53767625e-10
1.11075112e-07
9.09666375e-10
1.10483675e-07
1.03988022e-09
1.09992475e-07
8.76453731e-10
1.09803629e-07
3.79769917e-10
1.0963834e-07
3.30783738e-10
1.0889956e-07
1.25859328e-09
1.07783038e-07
1.84886091e-09
1.07725169e-07
1.60777185e-10
1.08585778e-07
-1.31837631e-09
1.08518517e-07
1.24341085e-10
1.06301337e-07
3.6617962e-09
1.04613698e-07
2.80109111e-09
1.06514892e-07
-2.9876229e-09
1.09208388e-07
-4.3396994e-09
1.08317423e-07
1.47628755e-09
1.02441865e-07
9.65773207e-09
1.00649248e-07
2.9732507e-09
1.06309918e-07
-9.21617595e-09
1.11567888e-07
-8.73438203e-09
1.07873174e-07
6.17424452e-09
9.85627597e-08
1.53557416e-08
9.89239159e-08
-6.44054015e-10
1.07042738e-07
-1.3367097e-08
1.12311374e-07
-8.6914487e-09
1.06921842e-07
8.89704201e-09
9.82301298e-08
1.42561381e-08
1.00344261e-07
-3.355329e-09
1.07460031e-07
-1.16392484e-08
1.09601339e-07
-3.45894421e-09
1.02840661e-07
1.12674432e-08
9.66847085e-08
1.01795771e-08
9.94658324e-08
-4.34825285e-09
1.04825256e-07
-8.5801644e-09
1.05123297e-07
-5.50284564e-10
9.93694129e-08
9.28865341e-09
9.57112931e-08
6.05537698e-09
9.75872909e-08
-2.64229648e-09
9.95906705e-08
-2.94142352e-09
9.82568834e-08
2.38188062e-09
9.44052646e-08
6.4879391e-09
9.22532099e-08
3.75974639e-09
9.23319193e-08
1.53431435e-10
9.21493955e-08
5.18834358e-10
9.08905635e-08
2.13333389e-09
8.98022595e-08
1.78517764e-09
8.97280519e-08
8.73534916e-11
9.0195949e-08
-8.37367895e-10
9.05932536e-08
-7.58051211e-10
9.08759547e-08
-5.8760128e-10
9.12108301e-08
-6.67934984e-10
9.16032261e-08
-7.41672838e-10
9.19372767e-08
-6.21178896e-10
9.20712144e-08
-2.4827055e-10
9.20888422e-08
-4.69694555e-11
9.23145233e-08
-4.0956598e-10
9.23343882e-08
-5.3552931e-11
9.21986026e-08
2.49091254e-10
9.20170529e-08
3.29614787e-10
9.18157942e-08
3.63962336e-10
9.16051675e-08
3.80317776e-10
9.13886854e-08
3.89758078e-10
9.11707934e-08
3.90759147e-10
9.09585979e-08
3.79298014e-10
9.07580874e-08
3.5752353e-10
9.0571267e-08
3.32244079e-10
9.03974062e-08
3.0830758e-10
9.02347405e-08
2.87754024e-10
9.00808482e-08
2.71910711e-10
8.99320582e-08
2.62947143e-10
8.97844829e-08
2.61040956e-10
8.96337256e-08
2.67283463e-10
8.94832713e-08
2.65236614e-10
8.9316045e-08
2.98086537e-10
8.91254911e-08
3.4327121e-10