/*--------------------------------*- C++ -*----------------------------------*\
  =========                 |
  \\      /  F ield         | OpenFOAM: The Open Source CFD Toolbox
   \\    /   O peration     | Website:  https://openfoam.org
    \\  /    A nd           | Version:  6
     \\/     M anipulation  |
\*---------------------------------------------------------------------------*/
FoamFile
{
    version     2.0;
    format      ascii;
    class       volScalarField;
    location    "25000";
    object      Qdot;
}
// * * * * * * * * * * * * * * * * * * * * * * * * * * * * * * * * * * * * * //

dimensions      [1 -1 -3 0 0 0 0];

internalField   nonuniform List<scalar> 
44870
(
-3.13808592e-28
-3.15158444e-28
-3.16709099e-28
-3.18001894e-28
-3.19629084e-28
-3.21185807e-28
-3.23192368e-28
-3.25196515e-28
-3.27692082e-28
-3.30234305e-28
-3.33300351e-28
-3.36453278e-28
-3.40139108e-28
-3.43940595e-28
-3.4824416e-28
-3.52665619e-28
-3.57526724e-28
-3.62487005e-28
-3.67797776e-28
-3.73197961e-28
-3.78851138e-28
-3.84597924e-28
-3.90529815e-28
-3.96552587e-28
-4.02735505e-28
-4.08991006e-28
-4.15397798e-28
-4.21861023e-28
-4.26315403e-28
7.08373869e-29
1.22519016e-25
3.08859939e-23
7.96251339e-21
2.1003684e-18
5.59639789e-16
1.49540457e-13
3.91774017e-11
9.8595156e-09
2.23507398e-06
0.000206828992
-3.13844439e-28
-3.15156296e-28
-3.17181672e-28
-3.19235705e-28
-3.22132864e-28
-3.25176432e-28
-3.29162256e-28
-3.33253315e-28
-3.38250121e-28
-3.43276522e-28
-3.49208323e-28
-3.55063874e-28
-3.61843124e-28
-3.68454581e-28
-3.75955932e-28
-3.83255517e-28
-3.91362011e-28
-3.99206411e-28
-4.07792189e-28
-4.16042281e-28
-4.24992087e-28
-4.33536447e-28
-4.42768884e-28
-4.51535707e-28
-4.61009136e-28
-4.69971347e-28
-4.79663112e-28
-4.88803758e-28
-4.91123392e-28
1.42214088e-27
5.11173865e-25
1.42443854e-22
4.13829868e-20
1.25807362e-17
3.93846687e-15
1.27142634e-12
4.11888266e-10
1.3394714e-07
1.71448058e-05
0.0054742482
-3.14005967e-28
-3.17887475e-28
-3.24222338e-28
-3.31917428e-28
-3.41773329e-28
-3.52255251e-28
-3.64978952e-28
-3.77601771e-28
-3.92306807e-28
-4.06649498e-28
-4.23069941e-28
-4.3855983e-28
-4.56630627e-28
-4.72771878e-28
-4.92370441e-28
-5.09329992e-28
-5.29804562e-28
-5.4730924e-28
-5.68542787e-28
-5.86141714e-28
-6.08018649e-28
-6.25243835e-28
-6.47610909e-28
-6.6397392e-28
-6.86640259e-28
-7.01669226e-28
-7.24308373e-28
-7.3714109e-28
-6.4137868e-28
3.13766011e-26
9.19146986e-24
2.74820076e-21
8.67127327e-19
2.869811e-16
9.91517011e-14
3.56130938e-11
1.30717732e-08
4.96558524e-06
0.00086840286
0.3235343
-3.2962885e-28
-3.63030747e-28
-3.97600273e-28
-4.3384767e-28
-4.70640455e-28
-5.08000856e-28
-5.45442837e-28
-5.82538452e-28
-6.19013398e-28
-6.54188444e-28
-6.87946445e-28
-7.19626224e-28
-7.4913592e-28
-7.76081109e-28
-8.00136986e-28
-8.21531512e-28
-8.39326357e-28
-8.54720878e-28
-8.65498974e-28
-8.74868712e-28
-8.79954813e-28
-8.8229637e-28
-8.82377961e-28
-8.78181713e-28
-8.74148366e-28
-8.64218373e-28
-8.56913093e-28
-8.26263548e-28
3.53067826e-27
1.22946135e-24
3.65564083e-22
1.13111677e-19
3.68573471e-17
1.24115584e-14
4.34788249e-12
1.54940447e-09
5.64694186e-07
0.000106600191
0.0343519474
12.0886959
-7.67244614e-28
-7.25524248e-28
-6.93791297e-28
-6.66441544e-28
-6.43987307e-28
-6.24692425e-28
-6.0873817e-28
-5.94891308e-28
-5.83422688e-28
-5.73433659e-28
-5.6523535e-28
-5.58121969e-28
-5.5241831e-28
-5.4752041e-28
-5.43742916e-28
-5.40536566e-28
-5.38200523e-28
-5.36230965e-28
-5.3491606e-28
-5.33810045e-28
-5.33185352e-28
-5.3267394e-28
-5.32511332e-28
-5.32427776e-28
-5.3258013e-28
-5.32861778e-28
-5.32152257e-28
-2.36119194e-28
8.44813086e-26
2.5276288e-23
7.82076849e-21
2.50670902e-18
8.28423698e-16
2.80376677e-13
9.67070188e-11
3.38255565e-08
1.19704562e-05
0.00198496752
0.731756178
306.652185
0.0095467657
0.0263716377
0.0469344087
0.0723236825
0.107166478
0.159645853
0.241524853
0.368056987
0.558392299
0.834849168
1.22552025
1.76064511
2.4802465
3.42718669
4.65770173
6.23927159
8.24430367
10.7895302
13.9775007
17.9865068
22.9858236
29.2310906
37.0005319
46.7045887
58.6263401
73.526929
92.0406798
114.633708
143.038431
177.289949
219.518316
271.235253
333.056792
409.180908
498.65388
607.827066
735.452593
888.783125
1068.50184
1281.61531
1532.09554
1825.95042
2169.55153
2569.06069
3032.06713
3566.96431
4182.78958
4889.48456
5697.92085
6618.52898
7663.27545
8842.10121
10167.2505
11647.5798
13294.8768
15117.3875
17126.3426
19330.7365
21741.1402
24367.517
27218.4859
30305.9112
33637.1819
37231.0329
41096.4746
45262.1781
49740.9545
54569.8127
59763.3297
65358.8361
71376.6023
77834.1758
84767.4643
92135.4604
100001.007
108259.543
116890.836
125847.887
135091.274
144576.599
154297.826
164284.512
174576.441
185263.78
196440.83
208276.603
220881.496
234516.121
249376.485
265763.885
283986.871
304340.783
327271.628
353211.686
382659.635
416179.367
454423.419
498138.487
548214.262
605680.431
671741.019
747814.826
835614.419
937132.638
1054879.28
1191862.41
1351813.89
1539711.95
1761496.18
2025203.53
2340571.73
2720219.77
3181208.64
3744522.62
4437141.33
5293377.14
6355831.76
7675645.47
9310082.42
11313877.4
13718517.8
16491648.8
19478471.1
22355466.4
24662311.3
25966336
26055279.9
25008500.2
23133354.1
20790813.8
18306165.9
15917631.7
13771813.3
11942559.9
10454521
9305419.58
8476578.16
7946605.16
7694503.42
8101394.39
8517292.36
9051574.13
9463460.13
9361233.03
8591329.25
7970132.05
7875884.5
8163267.31
8614658.08
9178828.55
9751812.59
10269823.7
10701436.6
11027265.5
11236563.9
11330600.2
11311546.9
11186112.6
10963794
10655804.5
10274450.9
9832837.77
9344026.14
8820753.77
8275044.35
7718008.29
7159577.46
6608309.76
6071379.99
5554570.89
5062322.97
4597816.85
4163070.28
3758984.88
3386043.6
3044525.01
2732968.16
2449955.22
2193915.19
1963087.13
1755604.13
1569582.98
1403180.47
1254591.41
1122047.55
1003908
898734.308
805191.437
721965.06
647683.904
581523.986
522484.589
470137.081
423359.662
381283.508
343780.547
310718.977
281688.157
255597.167
232373.542
211474.363
193518.913
176970.251
162106.35
148278.419
135894.476
125173.599
114879.756
105797.204
97339.7945
90000.3361
83554.2687
77664.5711
72164.0334
67056.6327
62451.5818
58244.2235
54674.9862
50960.4637
47091.5523
43508.9774
40137.225
36946.8053
33972.8233
31270.7117
28846.7096
26685.9487
24779.9342
23101.6858
21598.748
20213.4248
18895.0182
17607.5707
16338.2326
15095.4957
13898.9754
12779.6972
11788.2528
10783.316
9853.2242
9013.58137
8260.51782
7587.42271
6987.70709
6454.84392
5982.20018
5562.91656
5189.81569
4855.31104
4551.36431
4269.55785
4001.44168
3739.35074
3477.80495
3216.11168
2968.77315
2700.85703
2453.98272
2228.66923
2027.01031
1849.78288
1696.12028
1563.98608
1450.74725
1353.64564
1270.17039
1198.3666
1137.34731
1088.23434
1056.40437
0.330138391
0.721405932
1.05686553
1.43734047
2.00909824
2.94939965
4.47967319
6.8432345
10.3636611
15.3567129
22.2958512
31.5667088
43.8707224
59.6462292
79.7923819
105.192121
136.547808
175.460796
222.069872
278.895001
346.098427
425.703903
519.555981
627.405586
754.209102
896.935746
1063.42501
1249.2166
1463.02063
1700.06619
1968.16153
2265.88103
2596.36357
2964.39787
3367.35216
3815.1069
4302.77151
4844.42988
5435.0933
6088.88972
6801.21625
7582.3388
8431.2245
9352.97898
10354.6786
11441.1421
12618.9279
13894.719
15275.8321
16768.4533
18380.3846
20117.962
21990.9184
24007.2898
26179.7379
28518.4178
31037.339
33747.5336
36661.8953
39791.0612
43145.9796
46739.5693
50583.5361
54700.4224
59103.6389
63828.2978
68890.6708
74331.7902
80167.4518
86435.6394
93151.5203
100324.881
107977.443
116048.55
124583.248
133454.735
142639.861
152093.445
161797.113
171725.603
181917.728
192430.779
203326.307
214718.528
226717.695
239503.392
253180.368
268060.745
284346.272
302280.731
322251.907
344596.845
369739.487
398146.499
430344.354
466926.092
508576.625
556079.118
610371.007
672528.06
743813.729
825716.027
920031.142
1028846.16
1154801.66
1301026.21
1471441.43
1671277.84
1906686.42
2186066.34
2519305.01
2919891.1
3404943.49
3996025.87
4720732.55
5613753.68
6717836.58
8083633.32
9766553.46
11816863.2
14257428.9
17042022.7
19998946.2
22793580.9
24972807.4
26132782.4
26096048.7
24964517.9
23046262.4
20697351.1
18229488.9
15870789.7
13760896
11969443.7
10518695.7
9405893.31
8611884.83
8116079.64
7896665.51
8368009.73
8824779.1
9337313.18
9725478.75
9493970.18
8703491.7
8080714.02
8015643.57
8315542.92
8763564.9
9327493.97
9891182.86
10397217.9
10815365.8
11126223.8
11322350.4
11403513.3
11372273.2
11235629.3
11003208.5
10686295.4
10297217.8
9849030.37
9354750.22
8827028.48
8277796.3
7718029.43
7157564.15
6604846.07
6066945.98
5549551.83
5057020.14
4592458.88
4157823.67
3753961.05
3381315.16
3040176.46
2728993.64
2446355.07
2190680.92
1960201.09
1753041.74
1567317.38
1401186.32
1252842.78
1120514.2
1002559.8
897552.899
804165.507
721074.815
646893.393
580843.97
521875.424
469615.583
422906.981
380891.331
343406.028
310413.404
281438.615
255356.749
232256.629
211290.517
193434.574
176873.725
161998.319
148240.817
135805.07
125149.324
114827.757
105750.753
97309.4591
89944.9155
83531.0565
77609.2155
72124.7535
67022.9761
62407.3243
58216.1982
54656.0075
50943.0041
47062.6254
43488.7572
40124.1905
36934.9531
33963.0278
31261.5625
28837.6402
26675.4754
24766.1059
23084.5923
21578.8665
20191.4372
18872.0321
17584.662
16316.0712
15074.5479
13879.5321
12761.8269
11775.2034
10769.1885
9840.35584
9002.32897
8250.64098
7578.65326
6979.82917
6447.6832
5975.61076
5556.77468
5184.01767
4849.77403
4546.02921
4264.39371
3996.45022
3734.56752
3473.29126
3211.91294
2965.75463
2697.41549
2451.19851
2226.38245
2025.13581
1848.24797
1694.85802
1562.93793
1449.86492
1352.89046
1269.51162
1197.78015
1136.81464
1087.73944
1055.92837
29.6651488
51.4890332
65.9652121
88.1117353
127.703362
192.598375
288.985016
420.959966
593.389262
806.855601
1065.27614
1365.23714
1709.14065
2092.23152
2514.27065
2973.81476
3466.35312
3995.08833
4552.4
5142.79879
5761.202
6403.44254
7075.42127
7764.30806
8490.41267
9236.75468
10024.7438
10844.2003
11703.987
12595.1316
13530.4349
14501.4141
15519.2655
16584.871
17707.8537
18901.4945
20165.6224
21518.8842
22947.9567
24471.8882
26071.4706
27767.2596
29546.2087
31422.5965
33410.307
35514.1027
37741.3391
40095.7471
42579.1789
45191.3685
47935.4776
50816.6264
53847.194
57040.8125
60415.5449
63984.307
67759.4026
71745.0856
75946.6024
80366.0102
85013.1709
89900.3525
95052.1852
100495.046
106256.296
112381.373
118884.38
125808.554
133163.587
140976.07
149237.103
157925.837
167024.748
176433.417
186171.789
196098.771
206224.983
216549.717
227128.373
237984.24
249279.381
261092.929
273515.152
286705.51
300789.613
315951.676
332342.958
350231.019
369895.114
391624.814
415812.942
442860.569
473237.076
507465.32
546131.44
589894.13
639510.858
695848.122
759954.536
833003.798
916398.685
1011786.91
1121153.97
1246801.01
1391670.27
1559132.4
1753569.64
1980788.84
2247359.75
2562307.44
2936739.96
3384617.09
3924083.98
4577908.41
5374719
6349901.83
7546199
9012591.79
10799378.3
12945427.7
15452932.9
18244519.1
21114093.7
23709800.6
25603087.4
26455300.1
26159600.5
24858904.4
22859987.4
20504942
18078479.7
15787161.8
13756750.6
12048404.2
10679413.3
9646248.87
8929218.38
8508039.06
8781295.75
9057009.27
9483317.54
10017305.7
10256463.2
9771294.1
8875659.81
8332666.22
8326324.45
8652003.45
9096451.62
9652003.61
10194016.1
10673174.4
11061689.6
11339647.6
11506837.5
11559963.2
11502239.7
11341331.5
11087088
10750927.8
10345230.5
9882921.13
9376914.87
8839671.62
8282918.39
7717338.29
7152558.83
6596782.2
6056854.08
5538257.66
5045168.18
4580537.3
4146187.05
3742843.93
3370867.81
3030588
2720233.99
2438427.04
2183562.67
1953851.05
1747406.95
1562340.88
1396808.28
1248998.6
1117140.51
999603.749
894977.135
801921.481
719107.837
645149.908
579247.286
520589.465
468475.766
421894.842
380034.896
342667.841
309796.793
280894.345
254833.925
232036.532
210947.406
193232.134
176639.281
161774.306
148183.63
135605.458
125057.679
114699.192
105665.513
97264.1776
89816.7798
83463.6521
77472.7796
72048.503
66965.188
62328.6967
58156.5437
54472.0047
50802.6002
47020.9303
43463.6546
40100.2328
36908.4449
33948.1046
31251.0567
28824.7941
26654.2097
24736.5333
23048.503
21536.26
20143.6135
18822.0074
17534.9692
16268.0338
15029.083
13837.2786
12723.027
11746.7555
10738.2179
9812.22498
8977.72618
8229.02241
7559.43936
6962.55608
6431.97634
5961.15635
5543.30619
5171.31182
4837.65287
4534.36614
4253.1223
3985.5728
3724.15724
3463.47529
3202.77052
2954.40754
2689.83165
2445.12293
2221.38173
2021.02991
1844.88105
1692.08581
1560.63414
1447.92472
1351.22907
1268.06192
1196.49003
1135.64358
1086.65228
1054.88631
2449.95103
4083.47056
5834.15464
7923.79522
10395.8178
13153.5746
16001.4701
18790.4529
21462.8423
23938.7457
26227.4865
28295.5717
30154.4796
31785.8901
33241.2253
34537.974
35716.8837
36820.6418
37864.8841
38876.9224
39838.5839
40786.1621
41718.8034
42692.1467
43742.5227
44883.1761
46201.5605
47645.7676
49207.84
50853.452
52585.1102
54394.2795
56319.3047
58391.9818
60656.1418
63136.2512
65818.695
68684.5782
71670.2786
74768.3542
77934.4711
81216.6942
84610.1112
88169.0931
91934.4731
95905.2582
100064.538
104376.408
108807.537
113340.978
117989.332
122786.823
127783.757
133024.947
138537.154
144316.951
150337.605
156558.827
162953.263
169508.477
176243.744
183189.811
190409.615
197910.85
205774.948
214012.249
222592.457
231568.052
240926.728
250671.722
260759.063
271130.048
281733.256
292451.061
303324.496
314264.878
325399.897
336840.379
348756.463
361290.662
374642.232
388961.432
404364.275
420986.247
438958.462
458458.709
479673.056
502879.365
528416.536
556652.419
588047.466
623095.78
662354.159
706434.558
756016.142
811862.43
874843.377
945961.257
1026449.5
1117609.7
1221094.14
1338808.67
1473038.81
1626431.32
1802423.02
2004657.14
2238392.62
2510159.51
2827508.89
3200366.09
3640970.24
4164664.84
4790999.88
5544279.4
6454369.58
7557080.3
8894079.93
10509918.4
12444043.3
14713745.7
17286143.9
20037243.6
22719152.3
24973839.3
26428362.5
26842535.1
26199671.5
24684610.2
22598023.6
20251573.5
17898885.7
15713975.3
13805487.2
12223529.7
10977991
10066705
9466454.01
9585652.53
9715226.61
10030055
10549362.2
11001709.4
10933519.3
10089100.1
9162679.8
8733971.03
8810104.82
9167607.56
9667764.26
10137747.7
10644646.5
11081358.5
11419721
11653655.6
11776339.9
11787583.1
11690491.7
11493713.2
11207328.3
10842919.4
10412902.3
9929998.95
9406949.06
8855917.78
8288293.57
7714403.85
7143480.82
6583394.83
6040658.04
5520451.86
5026685.19
4562080.51
4128264.2
3725786.17
3354911.59
3015962.44
2706883.42
2426359.79
2172738.88
1944202.13
1738851.05
1554791.2
1390168.84
1243164.93
1112019.16
995124.863
891084.518
798518.886
716113.037
642498.334
576940.672
518652.349
466722.737
420350.581
378720.615
341601.868
308837.947
279992.425
254043.913
231689.178
210450.652
192937.352
176231.969
161407.59
148093.112
135282.146
124949.123
114464.009
105540.528
97225.6611
89627.1184
83369.8824
77246.5963
71947.3356
66894.6197
62217.5813
58071.0035
54252.3265
50636.5046
46964.0312
43432.6397
40075.6452
36879.7535
33933.105
31241.4048
28814.1273
26632.8639
24701.0007
23000.7627
21477.1071
20074.8976
18748.6693
17461.3167
16196.3222
14960.9251
13773.7771
12664.5971
11704.3868
10691.1381
9769.73286
8940.59896
8196.37139
7530.39532
6936.43179
6408.21588
5939.29254
5522.9412
5152.11217
4819.35313
4516.77777
4236.14596
3969.21021
3708.51358
3448.73529
3189.01098
2937.86664
2678.61471
2435.99281
2213.84488
2014.83171
1839.79132
1687.89002
1557.14402
1444.9832
1348.70848
1265.86142
1194.53164
1133.86626
1085.00283
1053.30819
819028.726
663375.566
509142.354
410225.079
365553.809
343583.453
322293.881
299893.313
278135.374
258438.273
241900.211
227862.323
215148.446
203576.663
193709.35
185304.721
178747.155
173820.264
170098.27
166941.251
163920.947
161192.742
159017.362
157884.22
157989.383
159471.384
162015.341
164999.395
167956.97
170657.934
173238.762
175974.767
179232.468
183269.404
188190.007
193830.62
199795.766
205683.601
211228.892
216479.795
221582.883
226875.785
232538.757
238746.464
245533.874
252709.513
259983.384
267095.083
273942.978
280603.766
287281.271
294210.942
301580.679
309461.5
317772.434
326320.413
334873.152
343268.591
351470.758
359549.544
367649.058
375942.461
384576.444
393588.725
402983.866
412763.78
422896.726
433428.234
444362.67
455692.253
467328.767
479147.857
491053.038
502920.941
514869.448
526950.328
539500.429
552804.26
567173.323
582859.887
600079.103
618968.401
639604.355
662044.302
686388.002
712788.559
741489.433
772850.197
807329.812
845445.503
887797.874
935020.255
987808.277
1046893.45
1113080.57
1187284.74
1270523.16
1364001.05
1469219.85
1587585.66
1721211.68
1872353.99
2043711.77
2238445.58
2460485.97
2714334.91
3006036.51
3343228
3734810.98
4191949.24
4728233.8
5360740.17
6110768.71
7004199.18
8071671.61
9347903.74
10870486.6
12673559.4
14775538.8
17157456.4
19736598.6
22335318.7
24675965.5
26426853.1
27310055.4
27203789.1
26180122.2
24450876.8
22298921.4
19996731.8
17757722.2
15721371.4
13977859.1
12566011.8
11485816.3
10738588.2
10748901.9
10738698.9
10991397.7
11462992.7
11976933.3
12155546
11566250.1
10405106.4
9587908.19
9304085.7
9455990.49
9860279.84
10336957.5
10826753.6
11277862.6
11655052
11878115.7
12053239.9
12117941.6
12073729.5
11925869.4
11682915
11355362.4
10954942.6
10494035.4
9985144.92
9440669.36
8872397.66
8291264.08
7707140.75
7128726.23
6563473.58
6017462.4
5495487.19
5001116.5
4536780.72
4103857.32
3702671.73
3333521.82
2996264.34
2688949.48
2410179.78
2158246.79
1931300.36
1727427.16
1544719.1
1381308.04
1235380.17
1105208.13
989199.94
885919.911
793981.424
712121.496
639089.489
574031.688
516104.919
464438.281
418350.082
376966.254
340235.043
307488.507
278792.242
252959.361
230415.619
209707.155
191858.731
175375.538
160470.834
147227.279
134758.434
124196.602
113856.914
104898.107
96670.1788
89201.3497
82837.2814
76764.5403
71449.2648
66488.7106
61864.1759
57682.5571
53843.1379
50265.22
46692.0557
43200.9045
39865.9437
36705.1208
33791.6371
31124.605
28708.8122
26539.4343
24620.785
22926.8907
21401.9284
19994.2614
18662.7176
17371.76
16106.2066
14873.4163
13691.1717
12587.7541
11650.1113
10628.1487
9713.47044
8891.48095
8153.11165
7491.86239
6901.74165
6376.65029
5910.24432
5495.89047
5126.62201
4795.07565
4493.46593
4213.66909
3947.56853
3687.84093
3429.26989
3170.90512
2919.12216
2664.00988
2423.93224
2203.85733
2006.60311
1833.02368
1682.30383
1552.4928
1441.0593
1345.34298
1262.92181
1191.91538
1131.49178
1082.79917
1051.2014
28570826.8
15589150.6
8914383.88
7257784.55
6912346.62
5618651.2
4127839.57
2963031.16
2171213.8
1678560.89
1384589.75
1186649.5
1016908.22
880780.858
779432.664
705686.781
652964.112
617271.832
589433.797
558711.967
526134.597
497194.634
475656.976
463575.072
460197.265
463141.714
468082.085
470066.539
467746.559
462824.571
458109.638
455849.794
457367.858
462799.222
471205.691
480516.914
488300.036
493291.223
495831.749
497356.743
499288.8
502793.516
508210.282
515412.534
523867.317
532375.535
539757.803
545534.543
550068.87
554204.141
558830.507
564576.905
571666.64
579877.411
588586.038
597061.58
604764.297
611582.082
617786.996
623832.29
630170.809
637226.244
645159.941
653862.275
663157.676
672982.541
683323.289
694258.377
705789.352
717830.761
730152.193
742479.038
754649.756
766568.686
778531.014
790827.647
804058.208
818694.817
835151.02
853704.879
874509.798
897588.402
922903.272
950403.926
980174.26
1012364.26
1047350.24
1085639.36
1127843.97
1174652.41
1226816.02
1285094.14
1350302.99
1423245.7
1504826.22
1596097.06
1698173.65
1812445.2
1940589.04
2084259.05
2245814.71
2427864.85
2633507.87
2866316.49
3130573.52
3431471.99
3775846.64
4172236.54
4630534.35
5162843.98
5783598.91
6511143.98
7367869.49
8380223.41
9578193.87
10993359.7
12656888.6
14589792.7
16787948.3
19199015.3
21703766.6
24096125.1
26099761.8
27426234.5
27879577.6
27414691.8
26151453
24304289.7
22137594.4
19894424.9
17759847.6
15848534.3
14242102.6
12971488
12026876.8
11881990.4
11700845.7
11817872.3
12200185.4
12721634.3
13115938.5
12918688
11895090
10658735.9
9966208.33
9818361.03
10015534.3
10397293.6
10882219.9
11337898.3
11744197.6
12072823.3
12241816.9
12368459.1
12387254.3
12298828.3
12109877.3
11829690.3
11469073.3
11040001.2
10554818.5
10025606.8
9464437.84
8882793.26
8291236.62
7699270.16
7115165.41
6546042.39
5997637.42
5474439.27
4979748.23
4515765.08
4083671.77
3683608.14
3315905.71
2980087.19
2674245.5
2396927.75
2146386.05
1920747.53
1718087.43
1536485.89
1374064.48
1229017.87
1099642.93
984355.136
881691.582
790266.157
708863.599
636297.687
571664.542
514006.187
462574.505
416728.02
375597.268
339100.947
306439.367
277851.287
252116.45
229395.284
208835.674
191013.617
174724.15
159798.678
146394.924
134076.002
123513.833
113358.468
104370.689
96041.3072
88625.9501
82308.4532
76335.2169
70971.9202
65984.8409
61389.2703
57262.2184
53455.4973
49872.348
46319.0199
42870.9505
39593.7128
36478.7815
33589.6493
30946.1669
28560.5263
26422.3789
24527.4034
22848.6704
21333.3912
19928.9974
18595.1654
17300.7234
16033.7571
14802.361
13623.775
12524.5558
11607.431
10575.6383
9667.40254
8851.33985
8117.72515
7460.31299
6873.32306
6350.78479
5886.4398
5473.72435
5105.73938
4775.19437
4474.3862
4195.28595
3929.88306
3670.96189
3413.39118
3156.1841
2904.9084
2652.24889
2414.12263
2195.71495
1999.8866
1827.49378
1677.73438
1548.68343
1437.84129
1342.57971
1260.5059
1189.76297
1129.5363
1080.9834
1049.46547
23428396.9
15315348.8
10455653.9
7595909.59
5827022.89
4613822.69
3713302.56
3046114.43
2518863.29
2099576.61
1771516.02
1514390.12
1301983.69
1124334.82
977263.656
855956.688
752324.329
662768.94
586140.274
520732.457
463296.952
412742.495
368612.772
330171.846
295925.285
265394.923
238301.529
214250.393
192961.537
174016.663
156968.534
141682.636
128122.457
116095.515
105492.111
96431.6692
89077.0568
85246.4268
141072.995
5208147.84
18820897
14713558.2
11467954.5
9255828.08
7638941.9
6409991.64
5393187.78
4556858.92
3853115.51
3266242.54
2786197.16
2394782.84
2067055.1
1790358.05
1558326.22
1363865.82
1197961.76
1054983.37
932203.496
826649.117
734573.032
653866.912
583304.367
521555.866
466914.438
418411.516
375374.984
337183.931
303286.365
273121.091
246081.46
221872.26
200294.504
181080.667
164025.177
149123.248
136481.997
126441.682
127189.746
499418.808
15046075.9
13092480.4
10966532
9254810.78
7873156.28
6774803.76
5880610.19
5122366.37
4462692.59
3889897.5
3397243.44
2973499.4
2606538.6
2288794.58
2014945.63
1778692.4
1573411.55
1394475.52
1238566.47
1102367.75
982630.546
877194.423
784276.439
702214.784
629366.168
564615.156
506954.672
455646.507
409882.599
369010.925
332333.072
299469.532
270037.009
243631.484
219961.349
198822.948
180029.358
163313.368
149299.966
161647.593
14272672.9
12207493.2
10494281.8
9017196.91
7762917.28
6713587.19
5840664.06
5108066.38
4484252.54
3947636.31
3483374.29
3079448.66
2725383.78
2414762.6
2142536.96
1903789.29
1693547.58
1508301.95
1345069.2
1201038.48
1073485.43
960546.104
860365.869
771371.963
692115.05
621462.237
558388.374
502120.762
451791.634
406695.523
366205.065
329893.339
297224.579
267812.917
241281.65
217359.338
195588.815
175662.461
157110.763
143405.252
14311890.6
12338450.6
10600962.4
9056429.52
7752403.81
6668988.45
5778415.44
5038644.63
4414334.65
3877250.51
3412303.72
3009715.01
2658137.53
2349277.28
2078442.73
1841854.94
1634246.86
1451704.17
1291451.81
1150349.63
1025590.22
915648.991
818332.805
731958.9
655392.893
587227
526489.475
472500.342
424328.88
381198.378
342622.084
308106.642
277000.183
249005.578
223732.545
200975.181
180014.935
160761.681
142494.167
131662.408
15449127
13413824.5
11158623
9234330.05
7735310.37
6567373.88
5635464.49
4855425.47
4194605.14
3622871.52
3128671.52
2709863.61
2355851.56
2051278.66
1788367.56
1564268.22
1372571.57
1206491.3
1063345.49
939548.607
831151.476
736825.739
654496.751
581993.879
518427.215
462311.628
412591.998
368695.363
329861.894
295274.245
264531.387
237204.437
212706.847
190660.401
170820.178
152900.963
136515.645
121325.321
107670.256
115248.251
19411143.9
14842910.4
11307162.2
8879328.22
7196918.33
5923903.9
4884035.6
4035238.12
3362647.9
2808119.27
2351345.35
1983659.51
1690552.76
1446475.74
1241147
1071006.44
929848.56
809523.153
707643.57
621110.918
546029.086
481386.154
425755.234
377058.209
334728.577
297538.898
264717.842
235918.248
210650.343
188197.628
168350.211
150843.893
135127.519
120960.429
108230.904
96815.7308
86449.0707
76935.4075
71053.6984
131694.409
23458262.3
15049121.5
9964016.92
6964776.65
5188247.38
4011626.65
3150849.31
2515110.09
2051819.48
1686150.92
1395073.99
1168636.96
995227.749
850156.63
727879.778
627632.805
545517.613
474807.559
415248.212
364843.981
320682.151
282762.884
250334.58
221727.354
196945.221
175066.79
155694.944
138779.512
124014.681
110799.046
99169.6724
88976.9021
79723.0876
71338.2574
63832.8147
57187.8403
51183.5957
45922.6871
49416.6327
219901.913
53479417
30923982
32767753.3
35241795.1
35571019.3
28652567.6
19228035
12759941.6
8870031.4
6836679.73
5819876.16
4660299.3
3611718.71
2879234.87
2400120.73
2080385.74
1868303.86
1730952.17
1611090.66
1460556.43
1312057.21
1195298.29
1118057.62
1078988.6
1067650.28
1070277.72
1069980.75
1051457.85
1018169.48
981564.735
951487.538
932890.97
926829.689
931090.67
941034.779
949735.978
950976.666
943728.466
931567.213
919385.293
910693.196
907299.019
908975.868
914403.665
921796.935
927935.626
930386.486
929032.295
925638.354
922504.462
921451.841
923382.152
928214.235
934983.993
942094.539
948049.865
952107.589
954495.809
956117.018
958012.237
960981.646
965739.262
972285.689
980182.421
988973.169
998536.041
1008911.75
1020223.99
1032432.61
1045303.85
1058372.23
1071158.13
1083437.84
1095196.56
1106998.14
1119461.38
1133483.62
1149754.19
1168762.09
1190760.15
1215790.12
1243705.13
1274314.57
1307441.67
1343175.35
1381654.52
1423488.98
1469376.32
1520114.08
1576600.72
1639757.95
1710481.05
1789692.27
1878296.38
1977280.28
2087781.35
2211077.49
2348732.23
2502592.31
2674625.8
2867455.09
3084082.46
3328057.42
3603410.66
3914755.99
4268107.95
4671240.03
5133696.71
5666472.47
6282711.54
6997689.4
7831146.4
8806411.5
9949914.79
11289657.9
12851517.1
14656415.7
16706838.9
18970377.6
21358035
23718558.1
25830906
27439413.7
28312939.5
28339722.3
27540190.1
26069669
24134902.4
21978736.5
19814355.4
17799450.3
16024360.3
14565411.7
13445478.4
13133469.9
12765735.2
12725096.4
12780160.4
13228260.4
13702051.2
14081560.9
13394200.5
12064718.9
10934129.9
10411535.1
10359339.3
10591077.2
10971680.9
11406680.6
11828731.2
12194530.9
12483909.7
12598292.1
12678280.7
12648550.4
12514686
12284320
11967312.9
11574313.3
11117145.9
10608129.4
10059246.3
9482040.03
8887660.87
8286286.82
7687028.48
7097768.92
6525250.53
5974879.54
5450840.43
4956167.61
4492835.78
4061843.38
3662452.01
3297071.25
2962854.24
2658633.95
2382895.26
2133854.57
1909618.64
1708252.14
1527824.79
1366451.96
1222339.92
1093807.79
979273.409
877254.547
786371.399
705459.546
633378.284
569166.251
511799.137
460616.322
415052.802
374166.351
337906.124
305331.607
276876.683
251241.054
228394.039
207946.28
190183.884
174078.141
159100.759
145589.489
133357.648
122865.458
112850.468
103841.445
95428.9924
88039.1813
81792.1379
75899.8134
70512.9405
65488.5624
60920.2903
56844.0803
53079.7083
49485.1238
45948.1794
42541.8647
39323.8968
36254.4682
33387.3882
30767.7783
28412.3773
26304.4509
24430.6508
22765.5014
21258.9786
19857.2825
18521.4771
17224.4075
15956.8912
14727.6009
13553.205
12458.5492
11538.0228
10520.5482
9619.46824
8809.60144
8080.91588
7427.47905
6843.734
6323.84195
5861.633
5450.61639
5083.96462
4754.46406
4454.49779
4176.1355
3911.476
3653.41345
3396.90332
3140.95257
2890.41213
2640.11314
2403.98165
2187.29674
1992.94293
1821.77612
1673.00779
1544.73994
1434.50624
1339.71224
1257.99544
1187.5232
1127.4991
1079.09064
1047.65967
24773437.3
100535724
213126353
332200846
431048034
525817151
302302922
144698453
85410569.8
63940398.2
54108058
38838703.2
26958802.6
20699620.9
17302570.2
15118030.6
13723691.5
12493432.3
10481623.1
8246473.46
6579700.98
5580697.25
5043699.87
4810454.73
4711262.74
4620563.7
4426650.46
4072120.5
3690701.43
3379118.92
3167884.11
3046750.02
2992052.15
2973601.62
2958749.84
2912016.18
2816263.63
2691410.23
2569621.3
2471700.6
2403598.41
2362133.07
2338940.78
2324104.38
2310799.02
2285302.27
2243305.75
2191890.49
2141701.68
2100479.04
2071370.43
2053700.4
2044117.15
2037525.14
2028232.86
2012860
1991694.13
1967770.34
1944911.74
1925901.11
1911918.57
1904269.27
1901268.01
1900721.02
1901501.82
1903670.37
1907655.58
1913734.67
1921525.84
1930104.25
1938077.36
1944439.52
1949086.58
1952572.43
1956541.25
1962651.12
1972429.47
1987025.91
2006797.45
2031643.06
2061111.83
2094473.89
2131114.37
2170606.42
2213134.27
2259198.53
2309850.47
2366351.02
2429975.43
2502018.83
2583671.87
2675995.87
2780011.98
2896712.76
3027152.35
3172553.15
3334472.32
3514717.51
3715499.87
3939300.84
4189258.7
4469026.24
4782922.39
5135696.85
5532161.66
5980022.59
6488896.35
7069951.99
7735719.29
8500657.04
9380316.94
10396259.9
11571271.7
12928166.7
14486038.9
16253050.8
18225631
20368383.8
22602116.4
24789764.9
26761769.7
28313118.5
29254078.4
29375391.6
28828259.6
27644852
25998654.6
24008476.5
21926722.9
19924775.5
18124219.7
16938059.6
15817246.9
15043752.8
14443009.5
14321808.6
14499445.6
14908880.3
15302348.3
15623213.2
15083957.5
13766439.1
12373111.4
11540484.3
11240625.1
11293611.3
11551926.4
11911887.2
12293268.5
12644237
12928489.1
13123790.4
13165699
13161141.4
13052426.8
12846033.2
12550035.9
12174826.2
11730993.5
11230128.1
10684073.9
10104671
9502846.85
8889052.26
8272839.34
7662683.73
7065863.11
6488503.46
5935497.58
5410550.08
4916278.76
4454304.65
4025341.26
3629176.84
3265785.06
2934286.07
2632798.19
2359705.46
2113171.11
1891267.9
1692039.58
1513548.16
1353916.87
1211366.36
1084220.74
970896.829
869935.233
779994.892
699939.636
628595.866
564993.682
508152.106
457491.531
412403.994
371839.675
335874.386
303556.26
275225.87