/*--------------------------------*- C++ -*----------------------------------*\
  =========                 |
  \\      /  F ield         | OpenFOAM: The Open Source CFD Toolbox
   \\    /   O peration     | Website:  https://openfoam.org
    \\  /    A nd           | Version:  6
     \\/     M anipulation  |
\*---------------------------------------------------------------------------*/
FoamFile
{
    version     2.0;
    format      ascii;
    class       volScalarField;
    location    "25000";
    object      rDeltaT;
}
// * * * * * * * * * * * * * * * * * * * * * * * * * * * * * * * * * * * * * //

dimensions      [0 0 -1 0 0 0 0];

internalField   nonuniform List<scalar> 
44870
(
110383.309
110570.883
110825.597
111121.101
111435.961
111762.346
112100.384
112446.023
112800.758
113160.547
113527.289
113897.657
114273.334
114650.734
115031.834
115413.075
115796.883
116179.927
116564.14
116946.378
117328.94
117708.7
118088.057
118464.116
118839.135
119210.593
119580.369
119946.771
120310.563
120671.639
121028.716
121384.736
121734.489
122086.11
122431.84
122787.745
123142.303
123587.584
123958.179
125427.275
110451.601
110662.6
110935.21
111238.065
111552.63
111877.76
112214.996
112558.989
112912.761
113270.29
113635.29
114002.751
114375.301
114749.001
115126.338
115502.648
115881.725
116258.693
116636.906
117012.279
117387.938
117759.985
118131.548
118499.054
118865.369
119227.435
119587.549
119943.784
120296.832
120646.997
120992.074
121336.671
121672.423
122012.927
122341.755
122687.585
123014.499
123474.425
123831.308
125707.433
110521.596
110751.808
111059.643
111388.526
111710.017
112034.043
112365.026
112698.528
113039.049
113380.164
113726.441
114073.335
114423.235
114771.582
115121.569
115468.808
115816.909
116160.669
116504.074
116842.183
117178.893
117509.55
117837.965
118159.791
118478.535
118790.335
119098.174
119399.308
119694.803
119984.769
120266.218
120545.668
120810.588
121079.608
121329.447
121598.189
121839.809
122234.429
122557.869
124824.566
110567.947
110774.065
111031.523
111302.738
111553.933
111802.199
112046.084
112283.755
112516.189
112739.19
112955.339
113162.381
113359.587
113547.13
113724.691
113891.839
114048.198
114194.152
114328.961
114453.337
114566.581
114669.654
114761.637
114843.942
114915.275
114977.4
116193.341
116487.13
116775.417
117058.311
117332.895
117605.529
117863.988
118126.447
118370.192
118632.379
118868.106
119253.101
119568.653
121780.065
110224.331
109975.646
109663.08
109274.145
108823.647
108355.331
109313.253
109545.127
109771.892
109989.454
110200.331
110402.323
110594.719
110777.687
110950.918
111113.989
111266.535
111408.929
111540.449
111661.792
111772.274
111872.834
111962.573
112042.871
112112.463
112173.073
113359.357
113645.981
113927.237
114203.23
114471.117
114737.102
114989.256
115245.314
115483.114
115738.907
115968.884
116344.489
116652.345
118809.819
122889.861
122943.006
122765.519
122502.486
122207.367
121896.666
121584.152
121263.548
120939.284
120614.992
120290.642
119966.701
119642.058
119314.178
118985.269
118656.474
118327.288
117999.313
117671.18
117342.715
117011.97
116679.86
116347.793
116014.428
115681.404
115347.064
115012.243
114675.661
114336.055
113994.342
113649.357
113303.267
112952.698
112599.4
112241.457
111879.106
111511.014
111136.523
110755.716
110367.941
109973.277
109569.651
109157.223
108733.774
108297.993
107850.246
107389.388
106914.153
106423.673
105917.509
105393.617
104850.365
104286.064
103698.709
103086.502
102448.151
101783.223
101092.33
100376.734
99638.7198
98880.1601
98103.6036
97310.7807
96503.9282
95684.3265
94853.0799
94010.7527
93157.8466
92294.1995
91420.2347
90536.1993
89643.198
88742.2662
87835.0806
86923.4729
86010.6811
85093.894
84177.0313
83260.2714
82344.1573
81429.2497
80516.096
79605.297
78697.1759
77792.1797
76890.5562
75993.3751
75100.6388
74213.3224
73332.0601
72457.441
71590.0729
70730.421
69878.9758
69035.7901
68201.0548
67374.7541
66556.9034
65747.2255
64945.6616
64151.3529
63365.2662
62587.2281
61817.3024
61055.6564
60302.5594
59557.884
58821.7931
58094.3589
57375.5264
56665.3181
55963.6882
55270.7815
54586.6857
53911.4596
53245.2458
52588.2601
51940.7429
51302.8906
50674.8336
50056.2818
49446.1352
49350.4542
48728.7873
47634.2174
47019.8634
46393.6731
45755.1825
45106.3045
44450.2395
43790.3407
43129.557
42470.121
41813.477
41160.585
40511.9999
39868.0333
39228.7567
38594.0655
37963.8141
37335.6494
36708.8739
36081.8709
35454.1787
34829.5456
34213.7477
33609.4333
33016.2037
32432.8599
31858.6187
31292.6868
30734.4999
30183.5931
29639.8116
29103.125
28573.4725
28050.8243
27535.219
27026.7331
26525.466
26031.5339
25545.057
25066.1664
24594.9831
24131.628
23676.2131
23228.8348
22789.5775
22358.506
21935.6748
21521.1228
21114.8857
20716.8985
20327.2774
19946.0439
19572.8873
19208.1344
18851.7914
18503.4028
18162.941
17830.9605
17507.2157
17190.0662
16879.8564
16581.1006
16295.3951
16014.6164
15729.7267
15453.0253
15208.6899
14984.217
14724.4144
14430.0498
14246.189
14049.7852
13872.9953
13540.9715
13270.8159
13215.4344
13042.6198
12910.0426
12511.7992
12361.1199
12651.6198
12976.1155
13300.5184
12976.1155
12659.6249
12350.8536
11982.212
12281.7673
11982.212
11689.9629
11404.8419
11126.675
11021.8268
10753.0017
10490.7334
10234.8618
10000
10000
10000
10000
10000
10000
10000
10000
10000
10000
10000
10000
10000
10000
10000
10000
10000
10000
10000
10000
10000
10000
10000
10000
10000
10000
10000
10000
10000
10000
10000
10000
10000
10000
10000
10000
10000
10000
10000
10000
10000
10000
10000
10000
10000
10000
10000
10000
10000
10000
10000
122901.108
122831.799
122533.431
122199.975
121873.16
121543.377
121209.651
120863.65
120514.676
120166.267
119816.396
119467.95
119117.87
118762.748
118404.636
118045.096
117682.963
117320.414
116955.676
116588.385
116217.221
115841.629
115464.271
115083.428
114700.749
114315.405
113927.767
113537.433
113142.364
112744.059
112341.543
111937.411
111528.732
111118.427
110704.698
110288.089
109868.139
109444.795
109018.413
108589.15
108157.587
107722.491
107285.133
106843.654
106398.902
105951.475
105500.343
105044.311
104581.994
104112.217
103633.883
103144.078
102641.419
102123.57
101588.244
101032.979
100456.109
99856.4784
99233.5932
98588.1891
97920.5143
97232.3444
96524.382
95798.9822
95056.932
94299.5021
93527.647
92741.9809
91942.3864
91129.2044
90302.4456
89462.9143
88611.255
87749.0521
86878.0909
86001.9164
85117.2318
84229.0779
83338.2073
82445.2601
81551.2567
80657.2087
79763.9416
78871.9451
77981.6084
77093.3479
76208.2238
75326.2939
74448.5141
73575.6733
72708.2865
71847.1848
70993.0234
70146.0342
69306.4122
68474.4906
67650.375
66834.2737
66025.9338
65225.2508
64431.5066
63645.9659
62868.386
62098.8712
61337.6399
60585.0075
59840.8219
59105.2932
58378.5621
57660.5648
56951.3916
56251.032
56167.1972
55565.2524
54978.3953
54406.6403
53850.1228
53307.7733
52775.9132
52249.2427
51718.2406
51168.8014
50584.2156
49947.007
49245.3671
48479.1784
47657.7704
46798.9065
45923.1147
44691.9111
44017.0587
43342.8345
42671.6419
42004.8554
41343.2913
40687.2746
40036.8871
39391.9325
38752.0319
38116.1935
37481.9034
36848.1109
36212.9923
35576.7882
34944.8298
34323.6488
33715.3749
33118.9618
32532.8006
31955.8436
31387.1181
30825.99
30271.9306
29724.7977
29184.6108
28651.3339
28124.9751
27605.6099
27093.3563
26588.3525
26090.7487
25600.6964
25118.3526
24643.8604
24177.3561
23718.9636
23268.7877
22826.9142
22393.4041
21968.3127
21551.6773
21143.5599
20743.8207
20352.4727
19969.737
19595.0909
19229.0465
18871.562
18521.7623
18179.8943
17847.7222
17524.4918
17204.6864
16888.0803
16588.1694
16312.1361
16035.407
15728.0842
15426.4402
15218.5512
15041.0106
14759.5905
14348.3464
14318.6546
14174.7722
14060.4071
13717.4704
13382.8979
13463.4747
13296.6084
13248.6195
12925.4824
12610.2267
12967.9103
13300.5184
13633.0314
13300.5184
12976.1155
12659.6249
12281.7673
12588.8115
12281.7673
11982.212
11689.9629
11404.8419
11297.3724
11021.8268
10753.0017
10490.7334
10234.8618
10000
10000
10000
10000
10000
10000
10000
10000
10000
10000
10000
10000
10000
10000
10000
10000
10000
10000
10000
10000
10000
10000
10000
10000
10000
10000
10000
10000
10000
10000
10000
10000
10000
10000
10000
10000
10000
10000
10000
10000
10000
10000
10000
10000
10000
10000
10000
10000
10000
10000
121374.68
121058.749
120572.401
120230.179
119906.554
119530.565
119130.405
118705.572
118270.23
117832.343
117388.474
116946.488
116501.923
116051.474
115598.62
115145.782
114692.888
114242.504
113795.277
113349.212
112902.698
112456.299
112012.342
111570.55
111131.785
110696.5
110264.897
109837.092
109409.644
108984.176
108560.989
108142.383
108808.519
108408.221
108004.583
107598.135
107188.429
106775.41
105307.103
104910.81
104515.793
104121.152
103727.8
103332.953
102939.654
102546.654
102152.455
101755.358
101353.94
100947.179
100534.29
100113.656
99684.1802
99243.7244
98790.7003
98322.4017
97837.3262
97333.8853
96811.2284
96269.6955
95708.5988
95129.182
94530.9838
93916.2098
93284.2738
92636.3579
91973.1452
91294.7355
90600.5412
89890.5571
89164.0563
88421.3423
87662.1304
86887.6467
86099.2061
85300.2085
84486.9317
83665.2547
82836.5714
82001.4416
81161.4128
80318.0992
79472.5008
78625.3661
77777.0573
76928.1855
76079.8418
75232.24
74386.2679
74316.5628
73568.0002
72814.3041
72055.1966
71292.0382
70525.087
69756.6861
68989.8695
68224.41
67456.58
66693.2642
65934.9209
65183.9765
64440.3306
63705.086
62978.9891
62263.1751
61557.5672
60862.4696
60179.2017
59507.6875
58848.9662
58203.1301
57571.3771
56954.3838
56352.8552
55766.8063
55196.3759
54640.4676
54095.311
53555.4738
53011.1966
52448.0215
51848.821
51195.6822
50476.5013
49691.1579
48849.2146
47968.8791
47071.1926
46174.7652
45293.5068
44436.3372
43607.4224
42807.319
42034.3389
41284.9955
40207.5845
39556.7841
38911.4407
38269.1563
37627.9535
36985.9452
36341.1596
35695.3219
35055.8563
34429.7111
33818.0873
33219.1296
32630.7783
32051.6422
31480.5691
30916.8299
30359.8151
29809.4148
29265.7111
28728.7
28198.4446
27675.0743
27158.7642
26649.7057
26148.0969
25654.1329
25168.0063
24689.8913
24219.9463
23758.3125
23305.1072
22860.4213
22424.311
21996.8288
21578.0083
21167.9491
20766.4544
20373.3476
19989.1219
19612.9454
19245.6443
18887.2253
18536.199
18192.5548
17859.681
17537.9286
17217.458
16893.363
16587.3823
16320.6445
16058.5171
15735.4165
15391.7762
15210.1523
15077.9014
14823.7986
14462.2426
14444.4335
14237.5651
14262.3686
13914.5059
13673.0667
13815.5923
13423.0373
13690.3984
13356.4863
12967.9103
13292.1081
13633.0314
13973.8572
13633.0314
13300.5184
12976.1155
12588.8115
12903.5318
12588.8115
12281.7673
11982.212
11689.9629
11579.8067
11297.3724
11021.8268
10753.0017
10490.7334
10234.8618
10000
10000
10000
10000
10000
10000
10000
10000
10000
10000
10000
10000
10000
10000
10000
10000
10000
10000
10000
10000
10000
10000
10000
10000
10000
10000
10000
10000
10000
10000
10000
10000
10000
10000
10000
10000
10000
10000
10000
10000
10000
10000
10000
10000
10000
10000
10000
10000
10000
118414.322
118106.097
117631.61
117297.736
116982.003
116615.186
116224.786
115810.314
115385.59
114958.383
114525.34
114094.134
113660.413
113220.95
112779.141
112337.348
111895.501
111456.102
111019.783
110584.597
110148.973
109713.463
109280.333
108849.317
108421.254
107996.585
107575.509
107158.138
106741.116
106326.026
105913.16
105504.764
106154.653
105764.119
105370.325
104973.791
104574.077
104171.132
102738.637
102352.01
101966.627
101581.612
101197.854
100812.637
100428.93
100045.516
99660.9315
99273.5203
98881.8931
98485.0531
98082.2339
97671.8595
97252.8587
96823.1457
96381.171
95924.2943
95451.0499
94959.8881
94449.9789
93921.6541
92505.6888
92025.1206
91529.9636
91022.3327
90500.691
89965.9687
89418.1235
88856.6571
88280.2058
88712.039
88314.3748
87890.5219
87431.63
86939.3119
86412.6622
85853.3298
85257.2721
84637.2719
83999.0245
83340.8089
82668.0619
81984.7647
81292.2694
80590.9099
79879.503
79157.2213
78426.1837
77684.6837
76933.7563
76174.4768
75407.2002
74634.6617
73856.5765
73074.3391
72288.2141
71500.6033
70714.6163
69930.0203
69142.9945
68360.5958
67583.2939
66813.576
66051.3389
65297.7132
64553.4638
63819.7545
63096.5063
62384.0313
61683.6817
60995.3797
60320.1903
59658.2084
59010.6615
58378.2433
57761.6765
57160.9764
56576.2853
56006.4793
55447.6938
54894.3607
54336.4765
53759.222
53145.0415
52475.5743
51738.4139
50933.4368
50070.445
49168.1011
48247.9724
47329.1343
46425.8445
45547.2456
44697.608
43877.502
43085.1974
42317.1204
41568.3917
40832.2476
40102.714
39372.2998
38633.2778
37880.8939
37120.0236
36368.5818
35646.549
34960.1326
34303.9066
33669.412
33049.7028
32440.184
31525.897
30961.4125
30403.2346
29851.3293
29305.8068
28766.7012
28234.135
27708.2942
27189.4108
26677.7301
26173.498
25676.9545
25188.3284
24707.8251
24235.6258
23771.8896
23316.7478
22870.2987
22432.5943
22003.6807
21583.5856
21172.4465
20770.0685
20376.064
19991.128
19614.1545
19246.1973
18887.4465
18535.6851
18190.3963
17856.9024
17537.8496
17219.0363
16887.554
16571.518
16312.176
16072.3308
15742.8554
15348.1135
15174.3571
15098.5565
14906.1719
14542.6067
14512.9454
14185.5408
14409.2482
14365.2657
14014.8934
14033.7814
13691.494
14036.3148
13693.9657
13282.4527
13614.514
13973.8572
14323.2036
13973.8572
13633.0314
13300.5184
12903.5318
13226.1201
12903.5318
12588.8115
12281.7673
11982.212
11869.3019
11579.8067
11297.3724
11021.8268
10753.0017
10490.7334
10234.8618
10000
10000
10000
10000
10000
10000
10000
10000
10000
10000
10000
10000
10000
10000
10000
10000
10000
10000
10000
10000
10000
10000
10000
10000
10000
10000
10000
10000
10000
10000
10000
10000
10000
10000
10000
10000
10000
10000
10000
10000
10000
10000
10000
10000
10000
10000
10000
10000
115526.168
115225.46
114762.547
114436.815
114128.784
113770.913
113390.035
112985.672
112571.308
112154.52
111732.039
111311.35
110888.208
110459.464
110028.43
109597.413
109166.342
108737.66
108311.983
107887.412
107462.413
107037.525
106614.959
106194.456
105776.833
105362.522
104951.716
104544.525
104137.674
103732.708
103329.912
102931.477
103565.515
103184.506
102800.317
102413.454
102023.49
101630.372
100232.817
99855.6195
99479.6362
99104.0116
98729.6134
98353.7925
97979.4441
96893.4408
96815.8091
96725.4507
96617.28
96490.915
96346.8788
96184.2886
96005.9
95809.4296
95598.9865
95368.263
95119.247
94850.9108
94566.1165
94270.5945
93963.9378
93653.2111
93333.8017
93015.3239
92689.809
92359.0461
92021.2477
91673.8294
91310.7577
90929.8399
90522.2341
90087.785
89617.4208
89112.7947
88572.9788
87999.663
87388.7039
86753.2037
86099.0001
85424.3291
84734.7634
84034.3839
83324.5761
82605.6826
81876.4906
81136.1519
80386.8382
79626.8008
78857.1002
78078.8388
77292.3803
76500.5282
75702.9909
74901.1976
74095.4195
73288.1183
72482.4817
71678.2708
70871.5693
70069.6107
69272.8763
68483.9154
67702.6223
66930.156
66167.3004
65415.2484
64673.919
63943.6321
63225.7738
62520.2642
61828.1951
61149.6636
60485.9281
59837.6994
59205.7185
58590.0009
57990.6924
57406.6413
56833.8861
56266.7197
55694.8884
55103.2025
54473.6675
53787.4636
53031.8742
52206.7727
51322.2061
50397.3036
49454.1717
48512.3627
47586.4906
46685.9267
45815.0482
44974.4395
44162.3273
43375.0484
42607.6015
41853.0538
41105.2819
40356.6073
39599.1097
38827.9162
38048.0242
37277.7963
36537.7127
35834.1359
35161.5043
34511.1473
33875.9453
33251.1886
32633.5517
32021.0094
31412.3292
30807.6436
30207.3685
29611.9747
29022.1127
28438.5306
27862.0358
27293.4265
26733.443
26182.7845
25642.053
25111.7739
24592.3632
24084.1475
23587.3716
23102.1935
22416.188
21986.9455
21566.6017
21155.3073
20752.9451
20358.9962
19974.389
19597.5528
19229.3943
18870.8563
18519.5754
18173.2064
17837.1709
17519.5473
17208.6264
16878.9295
16545.4848
16269.6883
16054.0862
15769.8732
15349.5947
15044.6007
14977.4404
14950.3125
14585.6707
14309.5953
13960.5808
14365.2657
14724.3973
14365.2657
13909.3874
13920.728
14268.7462
14102.875
13673.1265
13973.8572
14323.2036
14681.2837
14323.2036
13973.8572
13633.0314
13226.1201
13556.7731
13226.1201
12903.5318
12588.8115
12281.7673
12166.0345
11869.3019
11579.8067
11297.3724
11021.8268
10753.0017
10490.7334
10234.8618
10000
10000
10000
10000
10000
10000
10000
10000
10000
10000
10000
10000
10000
10000
10000
10000
10000
10000
10000
10000
10000
10000
10000
10000
10000
10000
10000
10000
10000
10000
10000
10000
10000
10000
10000
10000
10000
10000
10000
10000
10000
10000
10000
10000
10000
10000
10000
112708.456
112415.083
111963.46
111645.673
111345.155
110996.013
110624.424
110229.924
109825.666
109419.044
109006.867
108596.439
108183.617
107765.331
107344.81
106924.305
106503.748
106085.522
105670.227
105256.012
104841.379
104426.853
104014.594
103604.347
103196.91
102792.704
102391.918
101994.659
101597.731
100468.876
100452.902
100429.269
100393.581
100344.681
100288.766
100229.51
100163.775
100084.083
99991.9148
99891.848
99787.1121
99680.3201
99575.2508
99475.4136
99392.2838
99315.7768
99236.2044
99143.5869
99032.712
98903.1879
98755.5508
98588.8958
98406.0475
98204.6654
97988.9612
97752.4695
97497.2281
97222.1836
96930.2694
96627.3593
96313.0362
95994.5414
95667.1468
95340.707
95007.0542
94668.0222
94321.7789
93965.6751
93593.5267
93203.0859
92785.29
92339.9796
91857.8563
91340.6146
90787.3033
90199.6546
89573.4215
88922.0338
88251.4751
87559.9373
86853.1325
86135.2435
85407.6905
84670.8247
83923.4029
83164.5557
82396.5092
81617.4708
80828.5277
80030.8097
79224.6898
78413.0414
77595.5657
76773.7275
75947.805
75120.3213
74294.5437
73470.2276
72643.3586
71821.351
71004.6982
70196.0132
69395.1879
68603.4099
67821.4829
67050.6296
66290.767
65542.2229
64806.4181
64083.2708
63373.9
62678.4052
61998.0763
61333.6419
60685.8614
60054.7509
59440.4597
58841.8073
58254.7333
57673.3877
57087.2606
56480.7826
55835.5092
55132.1502
54357.6711
53511.942
52605.2613
51657.2362
50690.526
49725.1718
48776.1529
47853.0749
46960.4244
46098.8005
45266.3855
44459.4246
43672.7916
42899.3802
42132.9139
41365.5224
40589.0875
39798.6141
38999.2248
38209.7413
37451.1555
36729.9893
36040.5419
35373.926
34722.844
34082.4684
33449.3904
32821.5346
32197.6375
31577.8347
30962.5527
30352.2741
29747.6655
29149.4939
28558.5867
27975.7621
27401.7791
26837.3541
26283.1043
25739.5682
25207.1722
24686.2512
24177.0559
23679.7484
23194.3755
22720.9507
22259.3478
21809.7977
21371.7854
20942.9751
20528.0605
20122.2298
19726.4743
19343.7382
18970.4569
18599.9739
18238.5407
17904.27
17584.866
17231.2562
16852.1333
16553.0808
16374.6315
16112.6572
15585.99
15151.2743
15217.653
15412.9499
15037.0243
14670.2676
14315.3945
14673.2794
15092.5073
14724.3973
14257.1221
14268.7462
14625.4649
14455.4468
14014.9547
14323.2036
14681.2837
15048.3158
14681.2837
14323.2036
13973.8572
13556.7731
13895.6924
13556.7731
13226.1201
12903.5318
12588.8115
12470.1853
12166.0345
11869.3019
11579.8067
11297.3724
11021.8268
10753.0017
10490.7334
10234.8618
10000
10000
10000
10000
10000
10000
10000
10000
10000
10000
10000
10000
10000
10000
10000
10000
10000
10000
10000
10000
10000
10000
10000
10000
10000
10000
10000
10000
10000
10000
10000
10000
10000
10000
10000
10000
10000
10000
10000
10000
10000
10000
10000
10000
10000
10000
40952.2738
41976.0807
43025.4827
44101.1198
45203.6477
46333.7389
47492.0824
48679.3845
49896.3691
51143.7783
52422.3728
53732.9321
55076.2554
56453.1618
57864.4908
59311.1031
60793.8807
62313.7277
63871.5709
65468.3602
67105.0692
68782.6959
70502.2633
72264.8199
74071.4404
75923.2264
77821.307
79766.8397
81761.0107
83805.036
85900.1619
88047.6659
90248.8576
92505.079
94817.706
97188.1486
99617.8523
102108.299
104661.006
107277.531
39953.4379
40952.2738
41976.0807
43025.4827
44101.1198
45203.6477
46333.7389
47492.0824
48679.3845
49896.3691
51143.7783
52422.3728
53732.9321
55076.2554
56453.1618
57864.4908
59311.1031
60793.8807
62313.7277
63871.5709
65468.3602
67105.0692
68782.6959
70502.2633
72264.8199
74071.4404
75923.2264
77821.307
79766.8397
81761.0107
83805.036
85900.1619
88047.6659
90248.8576
92505.079
94817.706
97188.1486
99617.8523
102108.299
104661.006
38978.9638
39953.4379
40952.2738
41976.0807
43025.4827
44101.1198
45203.6477
46333.7389
47492.0824
48679.3845
49896.3691
51143.7783
52422.3728
53732.9321
55076.2554
56453.1618
57864.4908
59311.1031
60793.8807
62313.7277
63871.5709
65468.3602
67105.0692
68782.6959
70502.2633
72264.8199
74071.4404
75923.2264
77821.307
79766.8397
81761.0107
83805.036
85900.1619
88047.6659
90248.8576
92505.079
94817.706
97188.1486
99617.8523
102108.299
38028.2573
38978.9638
39953.4379
40952.2738
41976.0807
43025.4827
44101.1198
45203.6477
46333.7389
47492.0824
48679.3845
49896.3691
51143.7783
52422.3728
53732.9321
55076.2554
56453.1618
57864.4908
59311.1031
60793.8807
62313.7277
63871.5709
65468.3602
67105.0692
68782.6959
70502.2633
72264.8199
74071.4404
75923.2264
77821.307
79766.8397
81761.0107
83805.036
85900.1619
88047.6659
90248.8576
92505.079
94817.706
97188.1486
99617.8523
37100.7389
38028.2573
38978.9638
39953.4379
40952.2738
41976.0807
43025.4827
44101.1198
45203.6477
46333.7389
47492.0824
48679.3845
49896.3691
51143.7783
52422.3728
53732.9321
55076.2554
56453.1618
57864.4908
59311.1031
60793.8807
62313.7277
63871.5709
65468.3602
67105.0692
68782.6959
70502.2633
72264.8199
74071.4404
75923.2264
77821.307
79766.8397
81761.0107
83805.036
85900.1619
88047.6659
90248.8576
92505.079
94817.706
97188.1486
36195.8428
37100.7389
38028.2573
38978.9638
39953.4379
40952.2738
41976.0807
43025.4827
44101.1198
45203.6477
46333.7389
47492.0824
48679.3845
49896.3691
51143.7783
52422.3728
53732.9321
55076.2554
56453.1618
57864.4908
59311.1031
60793.8807
62313.7277
63871.5709
65468.3602
67105.0692
68782.6959
70502.2633
72264.8199
74071.4404
75923.2264
77821.307
79766.8397
81761.0107
83805.036
85900.1619
88047.6659
90248.8576
92505.079
94817.706
35313.0174
36195.8428
37100.7389
38028.2573
38978.9638
39953.4379
40952.2738
41976.0807
43025.4827
44101.1198
45203.6477
46333.7389
47492.0824
48679.3845
49896.3691
51143.7783
52422.3728
53732.9321
55076.2554
56453.1618
57864.4908
59311.1031
60793.8807
62313.7277
63871.5709
65468.3602
67105.0692
68782.6959
70502.2633
72264.8199
74071.4404
75923.2264
77821.307
79766.8397
81761.0107
83805.036
85900.1619
88047.6659
90248.8576
92505.079
34451.7243
35313.0174
36195.8428
37100.7389
38028.2573
38978.9638
39953.4379
40952.2738
41976.0807
43025.4827
44101.1198
45203.6477
46333.7389
47492.0824
48679.3845
49896.3691
51143.7783
52422.3728
53732.9321
55076.2554
56453.1618
57864.4908
59311.1031
60793.8807
62313.7277
63871.5709
65468.3602
67105.0692
68782.6959
70502.2633
72264.8199
74071.4404
75923.2264
77821.307
79766.8397
81761.0107
83805.036
85900.1619
88047.6659
90248.8576
109959.47
109673.252
109232.644
108922.608
108629.419
108288.793
107926.268
107541.389
107146.991
106750.287
106348.163
105947.746
105544.993
105136.908
104726.644
104316.395
103906.096
103498.07
103092.905
102688.792
102284.272
101879.857
101477.653
101077.412
100679.913
100285.565
99894.5542
99506.984
99119.7373
98018.4151
98002.8315
97979.7743
97944.9567
97897.2498
97842.6983
97784.8878
97720.7566
97643.0078
97553.0876
97455.4614
97353.2801
97249.0928
97146.5862
97049.184
96968.0817
96893.4408
96815.8091
96725.4507
96617.28
96490.915
96346.8788
96184.2886
96005.9
95809.4296
95598.9865
95368.263
95119.247
94850.9108
94566.1165
94270.5945
93963.9378
93653.2111
93333.8017
93015.3239
92689.809
92359.0461
92021.2477
91673.8294
91310.7577
90929.8399
90522.2341
90087.785
89617.4208
89112.7947
88572.9788
87999.663
87388.7039
86753.2037
86099.0001
85424.3291
84734.7634
84034.3839
83324.5761
82605.6826
81876.4906
81136.1519
80386.8382
79626.8008
78857.1002
78078.8388
77292.3803
76500.5282
75702.9909
74901.1976
74095.4195
73288.1183
72482.4817
71678.2708
70871.5693
70069.6107
69272.8763
68483.9154
67702.6223
66930.156
66167.3004
65415.2484
64673.919
63943.6321
63225.7738
62520.2642
61828.1951
61149.6636
60485.9281
59837.6994
59205.7185
58590.0009
57990.6924
57406.6413
56833.8861
56266.7197
55694.8884
55103.2025
54473.6675
53787.4636
53031.8742
52206.7727
51322.2061
50397.3036
49454.1717
48512.3627
47586.4906
46685.9267
45815.0482
44974.4395
44162.3273
43375.0484
42607.6015
41853.0538
41105.2819
40356.6073
39599.1097
38827.9162
38048.0242
37277.7963
36537.7127
35834.1359
35161.5043
34511.1473
33875.9453
33251.1886
32633.5517
32021.0094
31412.3292
30807.6436
30207.3685
29611.9747
29022.1127
28438.5306
27862.0358
27293.4265
26733.443
26182.7845
25642.053
25111.7739
24592.3632
24084.1475
23587.3716
23102.1935
22628.659
21972.4478
21551.1288
21139.0472
20736.0609
20341.3623
19956.6485
19580.0931
19211.6904
18852.6793
18502.1453
18157.5247
17820.2983
17497.2377
17186.1204
16869.3085
16543.5038
16243.3514
15996.1723
15743.9714
15399.3485
15050.5833
14862.2509
15037.0243
14670.2676
14312.4562
13966.2385
14315.3945
14724.3973
14365.2657
13909.3874
13920.728
14268.7462
14102.875
13673.1265
13973.8572
14323.2036
14681.2837
14323.2036
13973.8572
13633.0314
13226.1201
13556.7731
13226.1201
12903.5318
12588.8115
12281.7673
12166.0345
11869.3019
11579.8067
11297.3724
11021.8268
10753.0017
10490.7334
10234.8618
10000
10000
10000
10000
10000
10000
10000
10000
10000
10000
10000
10000
10000
10000
10000
10000
10000
10000
10000
10000
10000
10000
10000
10000
10000
10000
10000
10000
10000
10000
10000
10000
10000
10000
10000
10000
10000
10000
10000
10000
10000
10000
10000
10000
10000
10000
10000
107277.531
106998.295
106568.433
106265.959
105979.921
105647.603
105293.92
104918.429
104533.65
104146.622
103754.306
103363.654
102970.724
102572.593
102172.336
101772.093
101371.801
100973.727
100578.444
100184.187
99789.5334
99394.9824
99002.5884
98612.1093
98224.305
97839.5758
97458.1017
97079.9844
96702.1828
95627.7221
95612.5186
95590.0237
95556.0553
95509.512
95456.291
95399.8905
95337.3235
95261.471
95173.744
95078.499
94978.8098
94877.1637
94777.1572
94682.1308
94603.0066
94530.1861
94454.4479
94366.2933
94260.761
94137.4781
93996.955
93838.3303
93664.2926
93472.6143
93267.3039
93042.2078
92799.2653
92537.474
92259.6259
91971.3117
91672.1344
91368.9864
91057.3675
90746.6574
90429.0819
90106.3864
89776.8271
89437.8823
89083.6661
88712.039
88314.3748
87890.5219
87431.63
86939.3119
86412.6622
85853.3298
85257.2721
84637.2719
83999.0245
83340.8089
82668.0619
81984.7647
81292.2694
80590.9099
79879.503
79157.2213
78426.1837
77684.6837
76933.7563
76174.4768
75407.2002
74634.6617
73856.5765
73074.3391
72288.2141
71500.6033
70714.6163
69930.0203
69142.9945
68360.5958
67583.2939
66813.576
66051.3389
65297.7132
64553.4638
63819.7545
63096.5063
62384.0313
61683.6817
60995.3797
60320.1903
59658.2084
59010.6615
58378.2433
57761.6765
57160.9764
56576.2853
56006.4793
55447.6938
54894.3607
54336.4765
53759.222
53145.0415
52475.5743
51738.4139
50933.4368
50070.445
49168.1011
48247.9724
47329.1343
46425.8445
45547.2456
44697.608
43877.502
43085.1974
42317.1204
41568.3917
40832.2476
40102.714
39372.2998
38633.2778
37880.8939
37120.0236
36368.5818
35646.549
34960.1326
34303.9066
33669.412
33049.7028
32440.184
31837.6114
31240.0092
30646.1749
29771.9637
29228.9898
28691.2355
28159.031
27632.7574
27112.8294
26599.6742
26093.7003
25595.3009
25104.8301
24622.6049
24148.8927
23683.916
23227.8479
22780.8202
22342.9183
21914.2059
21494.6687
21084.3553
20683.0272
20290.0262
19906.8458
19532.3116
19165.8275
18808.2868
18459.5352
18117.8254
17782.7089
17457.6854
17143.7038
16832.9551
16520.7692
16219.5845
15945.5404
15682.4994
15385.9455
15089.3373
14846.9538
14664.1047
14364.8383
14019.5582
13848.1783
13966.2385
14365.2657
14014.8934
13570.134
13581.1981
13920.728
13758.9024
13339.6356
13633.0314
13973.8572
14323.2036
13973.8572
13633.0314
13300.5184
12903.5318
13226.1201
12903.5318
12588.8115
12281.7673
11982.212
11869.3019
11579.8067
11297.3724
11021.8268
10753.0017
10490.7334
10234.8618
10000
10000
10000
10000
10000
10000
10000
10000
10000
10000
10000
10000
10000
10000
10000
10000
10000
10000
10000
10000
10000
10000
10000
10000
10000
10000
10000
10000
10000
10000
10000
10000
10000
10000
10000
10000
10000
10000
10000
10000
10000
10000
10000
10000
10000
10000
10000
10000
104661.006
104388.58
103969.203
103674.107
103395.045
103070.832
102725.775
102359.442
101984.049
101606.46
101223.713
100842.59
100459.243
100070.823
99680.3273
99289.8469
98899.3181
98510.9534
98125.3108
97740.6704
97355.6423
96970.7146
96587.8911
96206.9359
95828.5902
95453.2447
95081.0748
94712.1799
94343.5929
93295.3386
93280.5059
93258.5597
93225.4198
93180.0117
93128.0888
93073.0639
93012.0229
92938.0205
92852.4331
92759.5112
92662.2535
92563.0865
92465.5192
92372.8105
92295.6162
92224.5718
92150.6809
92064.6764
91961.7181
91841.442
91704.3463
91549.5905
91379.7977
91192.7944
90992.4917
90772.8856
90535.8686
90280.4624
90009.3911
89728.109
89436.2287
89140.4746
88836.4561
88533.3243
88223.4946
87908.6697
87587.1483
87256.4706
86910.8937
86548.3307
86160.3656
85746.8507
85299.1512
84818.8409
84305.0363
83759.3461
83177.8264
82572.9482
81950.2678
81308.1062
80651.7677
79985.1363
79309.5311
78625.2779
77931.2225
77226.5574
76513.3499
75789.9353
75057.3232
74316.5628
73568.0002
72814.3041
72055.1966
71292.0382
70525.087
69756.6861
68989.8695
68224.41
67456.58
66693.2642
65934.9209
65183.9765
64440.3306
63705.086
62978.9891
62263.1751
61557.5672
60862.4696
60179.2017
59507.6875
58848.9662
58203.1301
57571.3771
56954.3838
56352.8552
55766.8063
55196.3759
54640.4676
54095.311
53555.4738
53011.1966
52448.0215
51848.821
51195.6822
50476.5013
49691.1579
48849.2146
47968.8791
47071.1926
46174.7652
45293.5068
44436.3372
43607.4224
42807.319
42034.3389
41284.9955
40554.5285
39836.3392
39124.599
38411.9998
37691.0027
36640.8511
35993.2898
35357.3282
34737.0976
34133.1847
33543.6613
32965.7202
32396.7798
31834.9491
31278.8749
30727.6322
30180.6705
29638.238
29100.3831
28567.3761
28039.5871
27517.4342
27001.3668
26491.8487
25989.3206
25494.2076
25006.8899
24527.7086
24056.9503
23594.8545
23141.6079
22697.3519
22262.1768
21836.1463
21419.2564
21011.5612
20612.8432
20222.3484
19841.5123
19469.3655
19105.3651
18750.263
18403.7075
18063.9699
17731.0787
17408.7439
17096.827
16786.0774
16473.9061