/*--------------------------------*- C++ -*----------------------------------*\
  =========                 |
  \\      /  F ield         | OpenFOAM: The Open Source CFD Toolbox
   \\    /   O peration     | Website:  https://openfoam.org
    \\  /    A nd           | Version:  6
     \\/     M anipulation  |
\*---------------------------------------------------------------------------*/
FoamFile
{
    version     2.0;
    format      ascii;
    class       volScalarField;
    location    "25000";
    object      T;
}
// * * * * * * * * * * * * * * * * * * * * * * * * * * * * * * * * * * * * * //

dimensions      [0 0 0 1 0 0 0];

internalField   nonuniform List<scalar> 
44870
(
293.997796
293.993438
293.988764
293.983509
293.977867
293.972147
293.96607
293.959626
293.952687
293.945404
293.93778
293.930067
293.922309
293.914731
293.907295
293.900125
293.893075
293.886193
293.879295
293.872425
293.865419
293.858361
293.851137
293.843879
293.836514
293.829194
293.821856
293.814644
293.807483
293.800487
293.793562
293.786785
293.780059
293.773393
293.766811
293.760053
293.753412
293.744923
293.736276
293.71317
293.998343
293.992874
293.988372
293.98329
293.977816
293.972256
293.966344
293.960071
293.953321
293.946241
293.93884
293.931366
293.923865
293.91656
293.909411
293.902544
293.895816
293.889274
293.882734
293.876237
293.869621
293.86297
293.856171
293.849355
293.842449
293.835609
293.828768
293.822076
293.815452
293.80902
293.802677
293.796515
293.790424
293.784424
293.778549
293.77255
293.766621
293.759256
293.750445
293.728732
293.998627
293.993138
293.988526
293.983547
293.978428
293.973379
293.968107
293.962551
293.956612
293.950394
293.943945
293.937464
293.931042
293.924861
293.918927
293.913311
293.907925
293.902767
293.897704
293.892727
293.887726
293.882736
293.877694
293.872689
293.867691
293.862822
293.858049
293.853499
293.849115
293.845011
293.841092
293.837454
293.833984
293.830744
293.827673
293.824757
293.821855
293.818308
293.81442
293.792885
294.00025
293.994855
293.992358
293.989324
293.986379
293.983752
293.981215
293.978647
293.97601
293.973331
293.970711
293.968271
293.966164
293.964471
293.963267
293.962522
293.962215
293.962233
293.962517
293.962938
293.96347
293.964025
293.964634
293.965256
293.965964
293.966736
293.967657
293.968695
293.969924
293.971285
293.972822
293.974455
293.976203
293.977973
293.979836
293.981636
293.983442
293.984251
293.986668
293.977975
294.005635
294.006766
294.016538
294.024262
294.031972
294.039765
294.047298
294.054418
294.061021
294.067135
294.072811
294.078205
294.083416
294.088574
294.093688
294.098781
294.103748
294.108543
294.11302
294.117153
294.120833
294.1241
294.12691
294.129362
294.13145
294.133285
294.134856
294.136263
294.137464
294.138529
294.139386
294.140091
294.14055
294.140802
294.140857
294.140707
294.140451
294.138661
294.144818
294.249274
293.689834
293.684986
293.682907
293.683217
293.68417
293.685557
293.687269
293.689845
293.693214
293.697994
293.704805
293.714347
293.727332
293.744474
293.76651
293.794263
293.828787
293.871246
293.923191
293.986326
294.062814
294.155073
294.26605
294.399117
294.55842
294.748517
294.97447
295.243051
295.56057
295.936519
296.378921
296.900068
297.510305
298.225514
299.059002
300.030692
301.157695
302.463316
303.96971
305.70249
307.689504
309.957945
312.541759
315.471447
318.779809
322.502803
326.676907
331.337525
336.516904
342.245542
348.550439
355.456035
362.981435
371.140763
379.94058
389.380993
399.454062
410.146309
421.438261
433.307895
445.730336
458.681594
472.138064
486.07934
500.487635
515.347604
530.645527
546.369634
562.506345
579.042889
595.961183
613.243477
630.864168
648.797914
667.015634
685.502735
704.190194
723.062652
742.087583
761.23786
780.493895
799.840253
819.268912
838.774085
858.353134
877.999113
897.713806
917.488106
937.319375
957.203784
977.136691
997.113562
1017.13067
1037.18591
1057.27071
1077.37615
1097.49233
1117.61241
1137.72913
1157.84192
1177.92988
1198.00883
1218.08675
1238.17456
1258.2883
1278.44905
1298.67485
1318.9885
1339.41403
1359.97707
1380.70715
1401.63527
1422.79778
1444.23679
1465.99965
1488.14019
1510.71908
1533.80328
1557.46315
1581.76492
1606.75586
1632.43846
1658.73542
1685.45511
1712.24783
1738.7102
1764.4143
1789.00564
1812.25261
1834.05626
1854.42711
1873.44903
1891.24672
1907.95942
1923.72399
1938.66306
1952.88137
1966.45721
1979.43907
1991.85221
2003.54688
2014.36618
2024.07335
2032.42726
2039.44145
2045.43889
2050.7552
2055.55857
2059.8802
2063.69947
2066.94741
2069.53152
2071.35137
2072.31677
2072.34679
2071.37173
2069.33494
2066.19388
2061.92158
2056.50678
2049.95328
2042.27899
2033.51465
2023.70229
2012.89356
2001.14797
1988.53113
1975.11294
1960.96601
1946.16412
1930.78109
1914.88995
1898.56308
1881.87141
1864.86267
1847.59462
1830.13203
1812.52622
1794.82335
1777.06558
1759.29115
1741.53411
1723.82453
1706.18976
1688.65501
1671.24148
1653.9646
1636.83779
1619.87899
1603.10671
1586.52122
1570.11894
1553.89143
1537.8782
1522.10036
1506.52186
1491.10063
1475.87545
1460.929
1446.2969
1431.85671
1417.53169
1403.47203
1389.78573
1376.45995
1363.2841
1350.24338
1337.47429
1325.0612
1312.94434
1300.95878
1289.15472
1277.67126
1266.52084
1255.66029
1245.03387
1234.70758
1224.71689
1215.0129
1205.64325
1196.48326
1187.52841
1178.75856
1170.14321
1161.65625
1153.27922
1144.99792
1136.79367
1128.64208
1120.51747
1112.39957
1104.27874
1096.15775
1088.05032
1079.97334
1071.92638
1063.83005
1055.60165
1047.95826
1040.54165
1033.23846
1026.03486
1018.93625
1011.94542
1005.06197
998.284424
991.611372
985.041061
978.571932
972.202742
965.933029
959.763367
953.694432
947.720991
941.802893
935.737365
930.314678
924.890903
919.514572
914.210986
908.98755
903.842503
898.769933
893.765737
888.823213
883.932766
879.102008
874.391896
870.021518
866.711622
293.706326
293.704061
293.705791
293.711419
293.719886
293.732254
293.749349
293.772909
293.804775
293.84734
293.903294
293.975919
294.068673
294.18569
294.331425
294.510762
294.729552
294.993721
295.310708
295.687594
296.133079
296.655863
297.265723
297.973107
298.788325
299.723435
300.789199
301.999205
303.36375
304.896977
306.609227
308.514229
310.62137
312.944382
315.491259
318.274748
321.301216
324.581142
328.120296
331.926008
336.004863
340.361306
345.004372
349.937125
355.170555
360.712898
366.57558
372.769105
379.302772
386.185836
393.42836
401.042106
409.039335
417.432408
426.232464
435.449507
445.091092
455.163306
465.669559
476.612411
487.991991
499.809082
512.062429
524.753267
537.880835
551.444189
565.442778
579.874378
594.733428
610.0123
625.697933
641.77506
658.221178
675.012603
692.121928
709.538346
727.189186
745.063378
763.129488
781.36187
799.740477
818.250024
836.882645
855.631937
874.493132
893.459141
912.528187
931.691576
950.943798
970.280563
989.694448
1009.17946
1028.73435
1048.35111
1068.01986
1087.73041
1107.47195
1127.23743
1147.01787
1166.81099
1186.59558
1206.38776
1226.19468
1246.02653
1265.89895
1285.83217
1305.8433
1325.95473
1346.19006
1366.57392
1387.13494
1407.90435
1428.91801
1450.21701
1471.84775
1493.86283
1516.32116
1539.28712
1562.82731
1587.00258
1611.85284
1637.37166
1663.47251
1689.95885
1716.48074
1742.64632
1768.04361
1792.33427
1815.29968
1836.84731
1856.98979
1875.80974
1893.42844
1909.98083
1925.59971
1940.40329
1954.4928
1967.94279
1980.79761
1993.06111
2004.59331
2015.23426
2024.7511
2032.92167
2039.78877
2045.68078
2050.91113
2055.63354
2059.87378
2063.60874
2066.76972
2069.26531
2070.99589
2071.87361
2071.8191
2070.7636
2068.65139
2065.44068
2061.10511
2055.63385
2049.03096
2041.31442
2032.51488
2022.67418
2011.84367
2000.08246
1987.45572
1974.03288
1959.886
1945.08839
1929.71333
1913.83337
1897.5205
1880.84588
1863.85497
1846.60582
1829.16415
1811.58025
1793.89996
1776.16518
1758.41399
1740.68029
1722.99407
1705.38246
1687.87043
1670.47925
1653.22471
1636.12009
1619.18231
1602.4298
1585.8614
1569.48321
1553.27772
1537.28109
1521.51697
1505.95824
1490.56319
1475.35805
1460.4176
1445.79085
1431.37373
1417.07511
1403.02823
1389.33674
1376.01405
1362.86155
1349.84631
1337.08572
1324.66626
1312.55493
1300.58991
1288.80184
1277.32255
1266.1718
1255.32078
1244.71032
1234.39392
1224.40798
1214.6985
1205.34033
1196.18621
1187.2344
1178.46492
1169.84985
1161.36442
1152.98932
1144.70968
1136.50724
1128.35817
1120.23702
1112.12347
1104.00795
1095.89327
1087.79309
1079.72416
1071.68593
1063.59885
1055.35241
1047.73615
1040.33215
1033.03595
1025.83863
1018.74633
1011.7616
1004.88383
998.111511
991.443278
984.877453
978.412532
972.047314
965.781361
959.615267
953.549736
947.5797
941.665726
935.582904
930.188922
924.762112
919.385937
914.083592
908.861634
903.718129
898.6471
893.644307
888.703025
883.813811
878.984393
874.275827
869.907629
866.601599
293.799346
293.841939
293.908021
294.012315
294.164109
294.374359
294.654136
295.015937
295.472467
296.037206
296.723317
297.543835
298.511029
299.63693
300.93283
302.408643
304.073889
305.935303
307.999981
310.272252
312.756768
315.455767
318.370333
321.500118
324.843016
328.397605
332.159615
336.127612
340.29202
344.648732
349.189588
353.907845
358.795838
363.848103
369.056479
374.415917
379.919449
385.564094
391.346857
397.267251
403.325657
409.524007
415.867591
422.355021
429.009354
435.833169
442.837809
450.030992
457.417258
464.999409
472.779856
480.762416
488.951748
497.352866
505.971766
514.815366
523.891712
533.210656
542.783318
552.622981
562.743885
573.162799
583.895958
594.964112
606.382236
618.167372
630.336382
642.900593
655.867289
669.239121
683.013264
697.18175
711.729928
726.640211
741.891407
757.480589
773.335926
789.454881
805.811405
822.384407
839.157495
856.119448
873.263599
890.584885
908.077644
925.736015
943.554032
961.525199
979.640722
997.892547
1016.27555
1034.78485
1053.41028
1072.14054
1090.96422
1109.86919
1128.84364
1147.88088
1166.96792
1186.09736
1205.25241
1224.44754
1243.68868
1262.98493
1282.35115
1301.80584
1321.36501
1341.04971
1360.88247
1380.8865
1401.08936
1421.52165
1442.21784
1463.21716
1484.56396
1506.30799
1528.5041
1551.21077
1574.48611
1598.37895
1622.91341
1648.06425
1673.72696
1699.69498
1725.6236
1751.14464
1775.88025
1799.5254
1821.88681
1842.88566
1862.53784
1880.92326
1898.15566
1914.36075
1929.66295
1944.17054
1957.97798
1971.15137
1983.72677
1995.65159
2006.82243
2017.07241
2026.17245
2033.95227
2040.51355
2046.18088
2051.22462
2055.76988
2059.83236
2063.38227
2066.35318
2068.65567
2070.19161
2070.87867
2070.64044
2069.41022
2067.13435
2063.77259
2059.29989
2053.70637
2046.9966
2039.1887
2030.31317
2020.41138
2009.53403
1997.7394
1985.09166
1971.65918
1957.51294
1942.72511
1927.36786
1911.5127
1895.23074
1878.59383
1861.64217
1844.43439
1827.03876
1809.50302
1791.87228
1774.188
1756.48783
1738.80535
1721.17027
1703.60946
1686.14754
1668.80564
1651.59966
1634.54292
1617.65185
1600.94435
1584.42607
1568.08563
1551.92552
1535.97099
1520.24429
1504.72503
1489.37263
1474.20898
1459.30101
1444.69961
1430.31561
1416.05041
1402.0361
1388.36528
1375.0627
1361.93578
1348.94841
1336.21588
1323.81216
1311.71825
1299.7756
1288.00948
1276.55044
1265.41555
1254.58275
1243.99315
1233.69498
1223.70825
1214.03233
1204.67644
1195.53115
1186.58591
1177.82041
1169.20789
1160.72513
1152.35309
1144.07693
1135.87871
1127.73512
1119.62114
1111.51674
1103.4125
1095.31134
1087.22679
1079.17528
1071.15605
1063.08793
1054.8038
1047.24825
1039.87108
1032.58996
1025.40649
1018.32816
1011.35689
1004.49166
997.73086
991.073257
984.517329
978.061693
971.705234
965.447574
959.289346
953.231309
947.268758
941.364556
935.361669
929.91576
924.478338
919.102754
913.803177
908.584419
903.444195
898.376415
893.376532
888.43778
883.55101
878.724259
874.018806
869.655214
866.356338
294.721249
295.884844
297.424109
299.366102
301.7043
304.43783
307.558109
311.053219
314.903112
319.084491
323.568343
328.325128
333.319743
338.527351
343.916215
349.463581
355.137589
360.913726
366.772515
372.695807
378.671758
384.687925
390.734497
396.802991
402.89159
409.001646
415.137146
421.304373
427.497089
433.721864
439.980132
446.272871
452.603245
458.971939
465.379823
471.826009
478.310192
484.833683
491.399124
498.008883
504.665839
511.3754
518.144146
524.967274
531.886754
538.898208
546.013706
553.238716
560.573529
568.014821
575.559126
583.203453
590.945999
598.785622
606.723355
614.76226
622.908461
631.171562
639.564599
648.104171
656.810705
665.706498
674.816636
684.169681
693.792188
703.711814
713.954235
724.540114
735.486017
746.802378
758.494898
770.561859
782.995718
795.785319
808.916552
822.394076
836.15163
850.196166
864.509204
879.076241
893.888173
908.940685
924.229887
939.754411
955.510093
971.493583
987.698414
1004.11738
1020.74602
1037.57664
1054.59934
1071.80283
1089.17502
1106.70334
1124.37519
1142.17675
1160.09627
1178.12992
1196.25595
1214.4565
1232.73141
1251.08918
1269.53406
1288.07433
1306.72325
1325.49699
1344.41163
1363.48577
1382.74007
1402.19735
1421.883
1441.82606
1462.05907
1482.61869
1503.54588
1524.88564
1546.68608
1568.99613
1591.86047
1615.30952
1639.34428
1663.91382
1688.89162
1714.06192
1739.09478
1763.65792
1787.42146
1810.12488
1831.60718
1851.80708
1870.74361
1888.49221
1905.15515
1920.84471
1935.67395
1949.7359
1963.11666
1975.86883
1987.9734
1999.39032
2010.01484
2019.66778
2028.14876
2035.37111
2041.50705
2046.85366
2051.62039
2055.89882
2059.69424
2062.9645
2065.65008
2067.66356
2068.90842
2069.31182
2068.80045
2067.31082
2064.79235
2061.20687
2056.5314
2050.75735
2043.89
2035.94766
2026.96055
2016.96937
2006.02382
1994.1809
1981.50336
1968.05799
1953.91411
1939.14223
1923.81289
1907.99599
1891.76135
1875.18238
1858.28343
1841.14502
1823.81946
1806.35667
1788.80098
1771.19318
1753.57028
1735.96528
1718.4075
1700.92356
1683.53773
1666.27052
1649.13752
1632.15262
1615.33296
1598.6952
1582.24391
1565.96657
1549.87293
1533.98783
1518.32501
1502.86143
1487.55795
1472.4558
1457.61593
1443.06741
1428.7165
1414.47386
1400.51402
1386.9051
1373.65052
1360.53769
1347.56
1334.87734
1322.52673
1310.46955
1298.53867
1286.7896
1275.37078
1264.27652
1253.47184
1242.89834
1232.62164
1222.67244
1213.02767
1203.67294
1194.53489
1185.59893
1176.84284
1168.23711
1159.7584
1151.38981
1143.11857
1134.92714
1126.79209
1118.68875
1110.59786
1102.51043
1094.42947
1086.36833
1078.34292
1070.35234
1062.31324
1053.96572
1046.51221
1039.17254
1031.91306
1024.75042
1017.6933
1010.74247
1003.89623
997.152897
990.511414
983.970499
977.528955
971.185796
964.940727
958.794439
952.747767
946.796526
940.909556
935.012576
929.492646
924.046182
918.672512
913.377335
908.163449
903.02814
897.965198
892.969631
888.034602
883.151374
878.32849
873.627604
869.270898
865.981984
323.417168
339.88255
354.442895
367.816524
380.496065
392.646051
404.284591
415.361862
425.847196
435.731947
445.03883
453.795283
462.037017
469.845423
477.280589
484.391113
491.231376
497.848374
504.28636
510.578257
516.767095
522.878718
528.926913
534.926506
540.894413
546.846411
552.799721
558.74696
564.696364
570.64362
576.587039
582.52368
588.45471
594.376308
600.285742
606.177916
612.053149
617.915097
623.772766
629.63178
635.497965
641.381061
647.291589
653.224314
659.238574
665.325481
671.4986
677.761289
684.108577
690.530918
697.018278
703.561248
710.152203
716.784915
723.456594
730.167791
736.923197
743.731867
750.607063
757.565784
764.629186
771.821306
779.170103
786.704923
794.459199
802.463677
810.745128
819.328247
828.233405
837.473808
847.05874
856.989376
867.262359
877.871321
888.807825
900.081455
911.636305
923.486323
935.620685
948.033599
960.723107
973.692173
986.943027
1000.47867
1014.30007
1028.40965
1042.80216
1057.4695
1072.40374
1087.59519
1103.03358
1118.70707
1134.60298
1150.7084
1167.01012
1183.49351
1200.14869
1216.98126
1233.93346
1251.00569
1268.21094
1285.54612
1303.01452
1320.62418
1338.38646
1356.31527
1374.42689
1392.73774
1411.26641
1430.03424
1449.06468
1468.3844
1488.02308
1508.01365
1528.39196
1549.19584
1570.46345
1592.22987
1614.52118
1637.34349
1660.6697
1684.42067
1708.45023
1732.5407
1756.39014
1779.71255
1802.23457
1823.74464
1844.11603
1863.30463
1881.33172
1898.26635
1914.19514
1929.21346
1943.42204
1956.89225
1969.70315
1981.84085
1993.30291
2004.03621
2013.91949
2022.7759
2030.46882
2037.02094
2042.65117
2047.59445
2051.99867
2055.92367
2059.36115
2062.26637
2064.57694
2066.21197
2067.07623
2067.11084
2066.24528
2064.4197
2061.58733
2057.71313
2052.77652
2046.77045
2039.70105
2031.58682
2022.45754
2012.35305
2001.32169
1989.41884
1976.70535
1963.24596
1949.10785
1934.35939
1919.06898
1903.30444
1887.13378
1870.63376
1853.80765
1836.75937
1819.52751
1802.16207
1784.70645
1767.20058
1749.68065
1732.17885
1714.72389
1697.34222
1680.05794
1662.89049
1645.85433
1628.96428
1612.24
1595.69715
1579.33527
1563.13974
1547.13135
1531.34262
1515.77322
1500.38341
1485.13095
1470.10525
1455.37172
1440.90996
1426.5922
1412.35453
1398.46542
1384.9641
1371.79215
1358.68189
1345.68844
1333.0743
1320.81847
1308.82068
1296.88844
1285.14753
1273.78812
1262.76139
1251.99458
1241.42965
1231.17559
1221.27439
1211.67201
1202.32893
1193.19835
1184.27439
1175.53409
1166.94065
1158.46796
1150.10357
1141.83921
1133.65774
1125.53474
1117.4458
1109.37289
1101.30776
1093.25359
1085.22342
1077.23251
1069.28
1061.28283
1052.83195
1045.5391
1038.24164
1031.00874
1023.87358
1016.84476
1009.92117
1003.10022
996.380142
989.760137
983.239243
976.816501
970.491092
964.262833
958.132485
952.100967
946.164648
940.297743
934.466883
928.916852
923.466299
918.096638
912.807679
907.600389
902.471616
897.41508
892.425249
887.495152
882.61657
877.798753
873.103913
868.756391
865.480349
902.633734
784.496534
723.192095
688.664885
668.103534
656.249755
649.424813
645.464841
643.281606
642.252941
642.100082
642.537199
643.38696
644.610424
646.128285
647.859531
649.800718
651.971193
654.360854
656.94605
659.747636
662.738063
665.879483
669.163515
672.599619
676.192129
679.939778
683.808993
687.785949
691.848404
695.982183
700.172582
704.413426
708.692375
712.999089
717.321988
721.657768
726.0095
730.385452
734.787289
739.217709
743.686642
748.20842
752.778499
757.463195
762.252089
767.1575
772.176669
777.298154
782.50604
787.785439
793.122991
798.508292
803.932829
809.391774
814.885114
820.416496
825.99383
831.629192
837.338255
843.140856
849.060049
855.123193
861.359925
867.801712
874.480134
881.42132
888.64924
896.183955
904.037633
912.220059
920.731618
929.56959
938.729372
948.204401
958.006102
968.086571
978.461869
989.126
1000.07904
1011.32505
1022.87328
1034.73007
1046.90133
1059.38849
1072.19322
1085.31113
1098.73492
1112.45763
1126.47035
1140.76344
1155.3255
1170.14448
1185.20755
1200.50163
1216.01266
1231.73334
1247.66779
1263.73854
1279.97769
1296.38116
1312.94713
1329.6783
1346.58237
1363.66998
1380.95378
1398.44912
1416.17149
1434.13815
1452.36902
1470.88588
1489.71323
1508.87801
1528.40956
1548.33885
1568.69697
1589.51293
1610.80973
1632.59818
1654.86582
1677.56669
1700.6056
1723.82967
1747.02815
1769.92553
1792.27106
1813.82957
1834.42029
1853.93737
1872.34595
1889.66713
1905.96533
1921.31323
1935.79349
1949.50038
1962.48402
1974.7908
1986.40939
1997.32892
2007.48403
2016.75047
2024.96822
2032.07124
2038.14823
2043.40878
2048.03954
2052.15235
2055.78844
2058.93405
2061.54217
2063.5508
2064.88287
2065.44589
2065.18786
2064.04176
2061.95078
2058.87085
2054.76964
2049.62821
2043.44066
2036.21371
2027.96594
2018.72677
2008.53529
1997.43877
1985.49129
1972.75217
1959.28453
1945.15388
1930.42686
1915.17018
1899.44999
1883.33274
1866.89967
1850.13389
1833.15897
1816.00425
1798.71883
1781.34538
1763.9231
1746.48759
1729.07046
1711.69987
1694.40194
1677.20056
1660.11495
1643.15898
1626.34712
1609.69968
1593.23299
1576.94558
1560.82223
1544.88373
1529.16564
1513.66706
1498.34503
1483.15258
1468.18431
1453.51447
1439.1117
1424.84443
1410.64519
1396.80101
1383.3498
1370.22839
1357.15531
1344.18704
1331.61215
1319.40015
1307.44183
1295.5368
1283.82215
1272.4956
1261.50315
1250.76685
1240.22682
1229.99565
1220.1203
1210.54139
1201.21218
1192.09504
1183.18236
1174.45228
1165.86743
1157.40168
1149.04399
1140.78727
1132.61485
1124.5025
1116.42639
1108.36904
1100.32265
1092.29059
1084.28579
1076.32303
1068.40162
1060.44379
1051.8809
1044.75362
1037.47932
1030.26589
1023.15293
1016.14724
1009.24589
1002.44556
995.744463
989.142007
982.637489
976.230146
969.919289
963.704825
957.587566
951.568487
945.644281
939.792112
933.991769
928.437206
922.98772
917.622462
912.338994
907.137324
902.014041
896.962876
891.977917
887.052035
882.177416
877.363885
872.674158
868.334257
865.068604
1893.42968
1903.56093
1910.9875
1916.69109
1921.18705
1924.76911
1927.62961
1929.92772
1931.78807
1933.31121
1934.57375
1935.63324
1936.53244
1937.30351
1937.97062
1938.5523
1939.06285
1939.5136
1939.91346
1940.26973
1940.58825
1940.87397
1941.1309
1941.36247
1941.57159
1941.76075
1941.93207
1942.08743
1942.2284
1942.35641
1942.4727
1942.57833
1942.6742
1942.761
1942.83936
1942.90936
1942.97113
1943.02258
1943.02095
1939.78001
1891.2737
1900.30847
1907.26568
1912.7908
1917.28825
1921.01581
1924.12161
1926.71654
1928.89271
1930.72698
1932.28195
1933.6083
1934.74661
1935.72953
1936.58317
1937.32856
1937.9826
1938.5591
1939.06927
1939.52239
1939.92606
1940.28672
1940.6097
1940.89954
1941.16011
1941.39472
1941.60624
1941.79714
1941.96959
1942.1255
1942.26651
1942.39406
1942.50941
1942.6135
1942.7073
1942.79108
1942.86533
1942.92898
1942.97587
1942.62565
1889.3532
1897.52554
1904.13303
1909.51345
1913.97025
1917.73081
1920.94395
1923.70575
1926.08731
1928.14663
1929.93197
1931.48449
1932.83858
1934.02339
1935.06315
1935.97827
1936.78587
1937.50047
1938.13419
1938.69745
1939.19898
1939.6464
1940.04608
1940.4037
1940.72398
1941.01121
1941.26896
1941.50053
1941.70867
1941.89591
1942.06438
1942.21604
1942.35256
1942.47531
1942.58575
1942.68441
1942.77296
1942.84994
1942.91546
1942.83933
1888.75841
1896.37954
1902.74138
1908.02739
1912.4552
1916.2092
1919.43117
1922.22325
1924.65871
1926.79312
1928.66902
1930.32159
1931.7796
1933.06804
1934.20786
1935.2177
1936.11318
1936.9083
1937.61488
1938.24358
1938.8034
1939.30245
1939.74762
1940.14515
1940.50028
1940.81786
1941.10192
1941.35625
1941.58399
1941.78811
1941.97106
1942.13519
1942.28247
1942.41455
1942.53338
1942.63952
1942.7357
1942.82011
1942.88778
1942.68899
1888.86051
1896.64138
1903.13275
1908.49071
1912.94887
1916.70873
1919.92549
1922.70795
1925.13209
1927.25432
1929.11672
1930.75425
1932.19535
1933.46528
1934.58507
1935.5738
1936.44742
1937.22045
1937.90495
1938.51194
1939.05055
1939.52917
1939.95472
1940.3336
1940.67107
1940.97204
1941.24053
1941.48035
1941.69461
1941.88628
1942.05776
1942.2114
1942.34913
1942.47264
1942.58375
1942.68341
1942.77382
1942.85357
1942.89125
1942.16805
1889.7082
1898.20329
1905.0532
1910.56251
1915.08903
1918.88055
1922.10459
1924.86264
1927.22893
1929.26381
1931.01636
1932.52913
1933.83759
1934.97253
1935.95917
1936.81944
1937.57132
1938.23034
1938.80924
1939.31911
1939.76906
1940.16708
1940.51975
1940.8329
1941.11134
1941.35939
1941.58061
1941.77823
1941.95497
1942.11327
1942.25518
1942.38262
1942.49718
1942.6003
1942.69338
1942.77735
1942.85358
1942.91672
1942.84751
1940.32018
1891.69678
1900.97816
1908.12167
1913.79124
1918.43352
1922.27557
1925.4599
1928.09568
1930.27876
1932.09283
1933.60679
1934.87765
1935.95092
1936.86321
1937.64333
1938.31456
1938.89521
1939.40014
1939.84123
1940.22824
1940.56906
1940.87029
1941.13734
1941.37477
1941.5864
1941.77548
1941.94476
1942.09663
1942.23311
1942.35598
1942.46676
1942.56681
1942.6573
1942.73924
1942.81366
1942.88118
1942.94189
1942.97503
1942.5597
1933.95986
1893.55501
1903.89493
1911.56646
1917.50611
1922.24387
1926.01961
1928.99009
1931.32441
1933.16793
1934.64264
1935.83934
1936.825
1937.64718
1938.34091
1938.93172
1939.4393
1939.87834
1940.26065
1940.59532
1940.88984
1941.15009
1941.38106
1941.58669
1941.7704
1941.93493
1942.08273
1942.21576
1942.33578
1942.44423
1942.54243
1942.63147
1942.71233
1942.78585
1942.85275
1942.91374
1942.96913
1943.01656
1942.99376
1941.67777
1915.97209
1677.60571
1478.75459
1333.27718
1223.01463
1138.68813
1079.3676
1033.62426
996.285526
965.569327
940.256471
919.562295
902.689281
888.701711
876.966994
866.977263
858.485948
851.321295
845.478639
840.794003
837.065851
834.15071
831.901961
830.21246
829.04401
828.388972
828.214759
828.487393
829.112902
830.031833
831.192029
832.562618
834.11158
835.819798
837.665661
839.634469
841.707123
843.86983
846.111769
848.430004
850.819511
853.281486
855.829261
858.481926
861.236144
864.171202
867.265394
870.523963
873.936547
877.484872
881.147546
884.905323
888.741639
892.643792
896.601589
900.607886
904.660368
908.760119
912.912116
917.125969
921.415147
925.797607
930.294833
934.932934
939.74044
944.746834
949.982899
955.473198
961.241274
967.306656
973.680073
980.371023
987.378756
994.700768
1002.33345
1010.27328
1018.53425
1027.0737
1035.91277
1045.05023
1054.49104
1064.24265
1074.31659
1084.72294
1095.47005
1106.56221
1118.00145
1129.78463
1141.90621
1154.35976
1167.13735
1180.23019
1193.62761
1207.31831
1221.28957
1235.52843
1250.02163
1264.76496
1279.74383
1294.90832
1310.27546
1325.84037
1341.6016
1357.56136
1373.72678
1390.10777
1406.71562
1423.56454
1440.66903
1458.04498
1475.71068
1493.68605
1511.99311
1530.65565
1549.69899
1569.14863
1589.02815
1609.35662
1630.14412
1651.38557
1673.0499
1695.07318
1717.34609
1739.71217
1761.96996
1783.87223
1805.20427
1825.76793
1845.41169
1864.04945
1881.65453
1898.24703
1913.88698
1928.63146
1942.55031
1955.73292
1968.19171
1979.96711
1991.03549
2001.38007
2010.92343
2019.54621
2027.11065
2033.62672
2039.23535
2044.12441
2048.43469
2052.24586
2055.58231
2058.42454
2060.72488
2062.42173
2063.44172
2063.69551
2063.13716
2061.70344
2059.34069
2056.00769
2051.67466
2046.32438
2039.95206
2032.56496
2024.18174
2014.83143
2004.5523
1993.39053
1981.39884
1968.63499
1955.16044
1941.03896
1926.33541
1911.11479
1895.44154
1879.3806
1862.99104
1846.31527
1829.41666
1812.34237
1795.14033
1777.85242
1760.51714
1743.16943
1725.84033
1708.55751
1691.34665
1674.2314
1657.23069
1640.35807
1623.62781
1607.06037
1590.67229
1574.46182
1558.41375
1542.54926
1526.90429
1511.47764
1496.22443
1481.09696
1466.19071
1451.58555
1437.24037
1423.02473
1408.87116
1395.07566
1381.67395
1368.59929
1355.56785
1342.63254
1330.09575
1317.92624
1306.00657
1294.13313
1282.44936
1271.15457
1260.19514
1249.48979
1238.97754
1228.77035
1218.91946
1209.36308
1200.05055
1190.94817
1182.04708
1173.3273
1164.75216
1156.29488
1147.94504
1139.69681
1131.53433
1123.43369
1115.37144
1107.33056
1099.30378
1091.2947
1083.3162
1075.38247
1067.49303
1059.57592
1051.10874
1043.94279
1036.68994
1029.49583
1022.40573
1015.42393
1008.54554
1001.76651
995.085012
988.500701
982.013137
975.621752
969.325995
963.12586
957.022212
951.016069
945.104419
939.265945
933.493549
927.938355
922.491201
917.130954
911.853425
906.657773
901.540351
896.494906
891.515162
886.593813
881.723448
876.91444
872.230046
867.898003
864.641245
1926.20927
1910.68104
1911.1329
1921.17367
1928.43253
1907.79027
1798.05664
1673.26976
1567.97543
1483.64841
1417.82579
1367.22438
1323.57989
1284.57549
1249.55795
1218.60068
1192.11878
1170.07377
1151.65723
1135.59779
1121.21341
1108.26915
1096.71057
1086.5939
1077.91844
1070.55217
1064.29185
1058.81387
1053.88042
1049.43475
1045.47086
1041.96191
1038.88764
1036.21172
1033.90167
1031.90007
1030.14372
1028.57882
1027.17816
1025.9305
1024.8494
1023.97132
1023.33658
1022.94828
1022.88677
1023.10547
1023.58543
1024.29556
1025.20796
1026.29781
1027.54659
1028.93858
1030.46019
1032.09823
1033.83787
1035.67027
1037.5893
1039.59302
1041.68641
1043.87984
1046.18881
1048.63259
1051.23514
1054.02273
1057.02146
1060.25967
1063.7571
1067.5368
1071.61604
1076.00108
1080.69884
1085.70362
1091.01104
1096.61685
1102.51738
1108.72761
1115.21299
1121.99783
1129.08705
1136.49094
1144.22165
1152.29508
1160.72469
1169.52118
1178.69231
1188.23996
1198.16263
1208.45808
1219.12131
1230.14675
1241.52803
1253.25632
1265.3222
1277.71449
1290.42104
1303.42993
1316.74776
1330.32186
1344.14206
1358.21401
1372.52992
1387.08734
1401.88816
1416.93876
1432.24822
1447.82608
1463.68461
1479.83676
1496.29621
1513.07839
1530.19971
1547.6773
1565.52883
1583.77195
1602.42187
1621.48858
1640.97406
1660.86779
1681.14186
1701.74096
1722.58304
1743.54889
1764.48982
1785.22655
1805.55968
1825.32168
1844.36062
1862.55889
1879.85299
1896.22315
1911.68494
1926.29524
1940.07948
1953.09008
1965.371
1976.94883
1987.82939
1997.97813
2007.34637
2015.86343
2023.42613
2030.00423
2035.68916
2040.62966
2044.9572
2048.75958
2052.08212
2054.93069
2057.27923
2059.08027
2060.27468
2060.79415
2060.55653
2059.52156
2057.63228
2054.84052
2051.10931
2046.41252
2040.73544
2034.07488
2026.43889
2017.84613
2008.32494
1997.91229
1986.65258
1974.59633
1961.79886
1948.31896
1934.21766
1919.55702
1904.39929
1888.80617
1872.83957
1856.57101
1839.99903
1823.22666
1806.2856
1789.22154
1772.07508
1754.8835
1737.68071
1720.49692
1703.35901
1686.29187
1669.31846
1652.45762
1635.72309
1619.12834
1602.69233
1586.43186
1570.34823
1554.42944
1538.68905
1523.15776
1507.84189
1492.70608
1477.70471
1462.90274
1448.38154
1434.11325
1420.00449
1405.96336
1392.24526
1378.88268
1365.86147
1352.93161
1340.09476
1327.61331
1315.47556
1303.6053
1291.81291
1280.20112
1268.94662
1258.01728
1247.36117
1236.91023
1226.74992
1216.9268
1207.39477
1198.11177
1189.03936
1180.15963
1171.45387
1162.89289
1154.45149
1146.11825
1137.88649
1129.74143
1121.6609
1113.62231
1105.60928
1097.61513
1089.64398
1081.70879
1073.82282
1065.98596
1058.1389
1049.97863
1042.62374
1035.38065
1028.21614
1021.16404
1014.22197
1007.38157
1000.63771
993.988581
987.43426
980.974735
974.609754
968.338981
962.162553
956.081413
950.096641
944.205566
938.389313
932.649656
927.102352
921.662763
916.312002
911.044687
905.859121
900.751409
895.715342
890.744211
885.8304
880.967139
876.165625
871.490215
867.171427
863.931058
1939.84068
1936.06219
1933.07145
1933.73419
1938.32808
1944.67784
1945.22075
1943.37156
1943.01089