/*--------------------------------*- C++ -*----------------------------------*\
  =========                 |
  \\      /  F ield         | OpenFOAM: The Open Source CFD Toolbox
   \\    /   O peration     | Website:  https://openfoam.org
    \\  /    A nd           | Version:  6
     \\/     M anipulation  |
\*---------------------------------------------------------------------------*/
FoamFile
{
    version     2.0;
    format      ascii;
    class       volVectorField;
    location    "25000";
    object      U;
}
// * * * * * * * * * * * * * * * * * * * * * * * * * * * * * * * * * * * * * //

dimensions      [0 1 -1 0 0 0 0];

internalField   nonuniform List<vector> 
44870
(
(49.6182547 -0.00693310242 -5.83619649e-12)
(49.7179261 0.00561922915 1.6786086e-11)
(49.8005234 0.0138614431 -2.64773978e-11)
(49.9460144 0.0160281208 3.65480635e-11)
(50.0630408 0.0146629842 3.85770692e-12)
(50.2330399 0.0113906167 3.81343399e-11)
(50.3556453 0.0072932865 -2.39777795e-11)
(50.5373403 0.00327058857 4.09898954e-11)
(50.666532 -0.000606053966 3.01174139e-11)
(50.8572152 -0.00393123109 3.84740077e-11)
(50.9900057 -0.00696808443 8.82185061e-12)
(51.1878172 -0.00953918476 3.62872986e-11)
(51.3228955 -0.0118109275 5.96426491e-11)
(51.5264688 -0.0138385941 -3.77221306e-12)
(51.6622284 -0.015660853 6.94359914e-11)
(51.8700185 -0.0169706194 4.33527396e-11)
(52.0050688 -0.0181004973 4.90756429e-11)
(52.2158962 -0.0188578403 1.58423419e-11)
(52.3493805 -0.0196300129 5.82873728e-11)
(52.5621994 -0.0203647748 8.01297158e-11)
(52.6930096 -0.0209016819 7.98611623e-12)
(52.9068937 -0.0214312122 7.8024779e-11)
(53.0344201 -0.0216968554 5.99744902e-11)
(53.2487025 -0.0220726873 5.75922525e-11)
(53.3724878 -0.0220958273 4.48500754e-11)
(53.5866416 -0.0223799898 5.18269578e-11)
(53.706374 -0.0221681098 3.64663839e-11)
(53.9199821 -0.0224411863 5.0575541e-11)
(54.0355125 -0.0219860511 3.15915935e-11)
(54.24822 -0.0223277268 4.87445538e-11)
(54.3594879 -0.0215874555 2.80613257e-11)
(54.5709212 -0.0221591634 5.2280595e-11)
(54.6782029 -0.0209502857 2.75518151e-11)
(54.8879078 -0.0221524084 5.92137961e-11)
(54.9919689 -0.0206306077 2.34520194e-11)
(55.2029876 -0.0218729992 7.49301026e-11)
(55.3064451 -0.0230364573 1.75097177e-11)
(55.5392845 -0.0253275072 1.03439021e-10)
(55.670606 -0.0222304248 5.9579936e-11)
(55.9908499 -0.0912611068 2.32974089e-11)
(49.6131309 -0.0413977962 -6.00635386e-12)
(49.7322295 -0.0821030605 9.755284e-12)
(49.8148314 -0.109978511 -1.01702379e-11)
(49.9554998 -0.118127155 1.31522231e-11)
(50.071594 -0.115747188 -1.38028843e-11)
(50.2369821 -0.109470493 2.22634031e-11)
(50.3594443 -0.102552829 -1.63170577e-11)
(50.5371174 -0.0953642073 2.00319525e-11)
(50.6666288 -0.0892335273 1.95618656e-11)
(50.8534148 -0.0833813805 2.34988448e-11)
(50.9866316 -0.0787232553 2.04623526e-11)
(51.1804191 -0.0742484563 1.78472303e-11)
(51.3158317 -0.0708119645 4.1387281e-11)
(51.5150513 -0.0671723303 9.20495496e-12)
(51.6510569 -0.0646400766 3.70563387e-11)
(51.8542876 -0.0620771018 3.32304232e-11)
(51.9893693 -0.0602963765 3.92247178e-11)
(52.1953074 -0.0579199736 3.28247971e-11)
(52.328446 -0.0565932196 4.39668306e-11)
(52.5360448 -0.0546785842 5.99733239e-11)
(52.6662847 -0.0537821471 3.32111784e-11)
(52.8747009 -0.0521334148 5.13262328e-11)
(53.0013294 -0.0515891556 5.23015169e-11)
(53.2098957 -0.0501219876 7.49534921e-11)
(53.3323969 -0.0498657583 7.55996526e-11)
(53.5406056 -0.0485080429 1.09017869e-10)
(53.6586045 -0.0485107595 1.01133252e-10)
(53.8660491 -0.0472189613 1.21475392e-10)
(53.9793349 -0.0474219708 1.16243204e-10)
(54.1856665 -0.0461750874 1.10774031e-10)
(54.2940961 -0.0465248012 1.03730371e-10)
(54.4989547 -0.0453189436 1.36745551e-10)
(54.602691 -0.0458344373 1.04738188e-10)
(54.8054626 -0.0442621472 1.46318258e-10)
(54.9054878 -0.0457847128 1.23614523e-10)
(55.1075737 -0.0453345848 1.5630009e-10)
(55.207596 -0.0450745113 1.48488184e-10)
(55.4181769 -0.0625211138 1.51628374e-10)
(55.5612564 -0.0443223834 1.95315517e-10)
(55.883386 -0.209559397 1.64686138e-10)
(49.6115851 0.0329392607 8.47284978e-13)
(49.7231372 0.0842435468 -1.75985429e-12)
(49.8180945 0.0801089056 1.70371355e-12)
(49.9608708 0.0608671395 -1.15178054e-12)
(50.0831412 0.0418385659 9.89606357e-13)
(50.2412883 0.0232245034 -9.54961007e-13)
(50.3645773 0.00589312908 2.52512004e-12)
(50.5305601 -0.0090370445 -1.8911588e-12)
(50.6588478 -0.0224322753 2.78598553e-12)
(50.8310635 -0.0333586798 3.05577698e-12)
(50.961979 -0.0431547889 -9.65601037e-12)
(51.1385844 -0.0510562096 1.38598829e-13)
(51.271044 -0.0579434962 -1.18919032e-11)
(51.4507371 -0.0636684118 1.32081682e-12)
(51.5829983 -0.0685019888 -1.13516236e-11)
(51.764168 -0.0725450036 3.42637157e-12)
(51.8951536 -0.0757424923 -1.39320429e-11)
(52.0765834 -0.0783479478 -4.26445238e-12)
(52.2050265 -0.0803010352 -7.20162985e-12)
(52.3855429 -0.0819401638 -2.58132686e-12)
(52.5104558 -0.0829151953 -9.396575e-12)
(52.6891421 -0.083887848 -1.59517089e-12)
(52.8096678 -0.0841005397 -7.24112513e-12)
(52.9858412 -0.0846317911 1.43030449e-12)
(53.101243 -0.0842100543 -4.69028519e-12)
(53.2743725 -0.0844638111 5.78503441e-12)
(53.3839711 -0.0834529787 -2.85361759e-12)
(53.5536575 -0.0836608983 8.63659074e-12)
(53.6568526 -0.0820337007 -8.51978667e-13)
(53.8227565 -0.0823900604 9.47801558e-12)
(53.9189404 -0.0800884999 1.30140945e-12)
(54.0806943 -0.0809420283 1.19578493e-11)
(54.1696128 -0.0776701443 4.23642916e-12)
(54.3265276 -0.0801559375 1.55086496e-11)
(54.4076175 -0.0745707484 7.48455891e-12)
(54.5607135 -0.0806571221 2.06782288e-11)
(54.637 -0.0727935136 1.17695968e-11)
(54.7980253 -0.0955018179 2.45172734e-11)
(54.892341 -0.0872875151 1.08129085e-11)
(55.2494646 -0.32111843 1.17133739e-11)
(49.5955069 -0.292437665 5.52301609e-12)
(49.708801 -0.309632339 -6.89524423e-12)
(49.7641336 -0.292538274 6.24703431e-12)
(49.8693279 -0.268644293 -6.8341643e-12)
(49.9683545 -0.24201079 6.47021175e-12)
(50.0850899 -0.21880628 -7.65112225e-12)
(50.1792506 -0.199765415 8.37233111e-12)
(50.2941842 -0.183402696 -9.92216648e-12)
(50.385516 -0.170213224 -6.6894503e-12)
(50.4955276 -0.158687063 -8.53696012e-12)
(50.5811951 -0.149550127 -4.38960777e-12)
(50.6845096 -0.140964875 -1.08870783e-11)
(50.763708 -0.134346675 -1.60508844e-11)
(50.8591047 -0.128137347 -9.87684951e-12)
(50.9309419 -0.123407641 -1.17920061e-11)
(51.0175715 -0.11848675 -1.86719467e-11)
(51.0814818 -0.114972967 -1.19839074e-11)
(51.1586078 -0.111021425 -1.88122975e-11)
(51.2142595 -0.108414028 -8.27888422e-12)
(51.2814131 -0.105027555 -2.84270725e-11)
(51.3288331 -0.103079945 -1.13145841e-11)
(51.3858272 -0.100032435 -2.98573869e-11)
(51.4251381 -0.0985408153 -1.73519799e-11)
(51.4719836 -0.0956542962 -2.6819297e-11)
(51.5034692 -0.0945031346 -1.75001454e-11)
(51.5402973 -0.0916624964 -2.78069641e-11)
(51.5643291 -0.0907449399 -1.68816171e-11)
(51.5913218 -0.0878075124 -2.53987412e-11)
(51.6083154 -0.0870432603 -1.43970498e-11)
(51.6258081 -0.0840736814 -2.39143242e-11)
(51.6360806 -0.0832604536 -2.36275631e-11)
(51.6444722 -0.0805691666 -2.3678669e-11)
(51.6483682 -0.0791510587 -2.24262807e-11)
(51.6475591 -0.0761861682 -2.13606578e-11)
(51.6440773 -0.0770342587 -2.08394614e-11)
(51.6392384 -0.0733656502 -1.9554577e-11)
(51.6234194 -0.0790423369 -1.85724941e-11)
(51.6307698 -0.09671283 -1.778027e-11)
(51.6008224 -0.107930795 -1.15629719e-11)
(51.791395 -0.543733785 -1.11457257e-11)
(49.4668578 0.407662332 1.69525124e-13)
(49.445024 0.284507792 -9.45287789e-13)
(49.2707815 0.193403501 1.41078135e-12)
(49.0729059 0.121599145 -9.86003487e-13)
(48.860533 0.0744206129 8.79040749e-13)
(48.6560269 0.0390341341 -6.84486193e-13)
(48.4284033 0.012476621 7.94218924e-13)
(48.2198078 -0.0093152723 -5.52255064e-13)
(47.9887242 -0.0257461136 4.36742631e-13)
(47.7792945 -0.0398815331 -8.57539027e-13)
(47.5469105 -0.0499455377 4.06562151e-13)
(47.339589 -0.0585953786 -1.23017123e-12)
(47.1086355 -0.0641800451 3.64224839e-13)
(46.9061458 -0.0692156876 -1.72104118e-12)
(46.6788371 -0.0714729932 1.17960818e-14)
(46.4833824 -0.074025198 -2.18318982e-12)
(46.2613166 -0.074016046 -2.11518885e-13)
(46.0746471 -0.0749354272 -2.4990269e-12)
(45.8588964 -0.0732638374 -3.98038542e-13)
(45.6823436 -0.0730923444 -2.99622895e-12)
(45.4735809 -0.0702638806 -1.36177023e-12)
(45.3080841 -0.0694406639 -3.37635139e-12)
(45.1068244 -0.065795409 -1.66271024e-12)
(44.9530674 -0.06464048 -3.72428081e-12)
(44.7596533 -0.0604388502 -2.48127831e-12)
(44.6181321 -0.0591386657 -4.3618542e-12)
(44.4328844 -0.0545732303 -3.04083247e-12)
(44.3039337 -0.053455232 -4.53382955e-12)
(44.1267364 -0.0483752619 -3.54451917e-12)
(44.0108897 -0.0476761727 -4.89281631e-12)
(43.8414862 -0.0420665282 -4.18476771e-12)
(43.7391631 -0.041967667 -5.54669554e-12)
(43.577124 -0.0356540855 -4.61983154e-12)
(43.4891516 -0.0368924973 -5.86453923e-12)
(43.3340177 -0.028384719 -4.69383903e-12)
(43.2596965 -0.033865191 -6.29595725e-12)
(43.0994708 -0.0200253763 -4.98549354e-12)
(43.0524783 -0.0409144145 -6.960602e-12)
(42.7227848 -0.0357753749 -1.11099612e-14)
(43.0144908 -0.273670627 -9.72390019e-13)
(56.7542376 -0.0310512199 1.10849584e-10)
(56.8928662 0.0386737391 3.24829787e-12)
(57.004847 0.101026092 7.35296659e-11)
(57.0326869 0.12619199 6.97119733e-11)
(57.048105 0.132481053 5.5675262e-11)
(57.0507077 0.127206336 1.03314117e-10)
(57.0497897 0.115745127 8.11494957e-11)
(57.0449555 0.101658355 8.44952727e-11)
(57.0380179 0.0869404326 7.55742802e-11)
(57.0310127 0.0731244114 1.18705591e-11)
(57.0246361 0.0599981602 6.73188689e-11)
(57.0164643 0.0482744247 -9.54845139e-14)
(57.0088546 0.0382577945 7.80810361e-11)
(56.997691 0.0296141791 -4.6800192e-12)
(56.9869292 0.0225161636 8.32298641e-11)
(56.9746898 0.0168462131 -1.39078561e-11)
(56.9624492 0.0125364631 8.94492126e-11)
(56.9503662 0.00953495154 -2.62018242e-11)
(56.936556 0.0077788212 1.07988307e-10)
(56.9233654 0.00655580883 2.75898999e-11)
(56.9067548 0.00610264553 1.00479274e-10)
(56.8902282 0.00627185783 1.47154746e-11)
(56.8718605 0.00696216678 1.13937593e-10)
(56.852416 0.00774221742 5.90065595e-11)
(56.8329651 0.00872235952 9.48401056e-11)
(56.8101727 0.00958549085 1.17161476e-10)
(56.7884743 0.0104506615 6.57704376e-11)
(56.7618413 0.0112147771 1.08039119e-10)
(56.7353372 0.0118218158 3.82403453e-11)
(56.7039192 0.0123501409 9.78675206e-11)
(56.6711049 0.0129568863 2.42164979e-14)
(56.6350376 0.0136772497 1.26003741e-10)
(56.5952839 0.0142909843 4.70602328e-11)
(56.5526425 0.0149522439 1.03898266e-10)
(56.5045652 0.0161710776 8.80244529e-12)
(56.4529667 0.0178530631 1.1293347e-10)
(56.3949636 0.0201604952 -2.68834469e-11)
(56.332039 0.0231013014 5.62964221e-11)
(56.2624852 0.0269527919 -3.09766755e-11)
(56.1869244 0.0317013788 7.63747825e-11)
(56.1046099 0.0374557702 2.40684309e-11)
(56.0149083 0.0442365183 8.28385034e-11)
(55.9172291 0.0520820956 7.07415399e-11)
(55.8108695 0.0609079711 5.41165428e-11)
(55.6952928 0.0706624895 4.75993568e-11)
(55.5703529 0.0812595954 3.36154006e-11)
(55.4358928 0.0923660951 3.23237695e-11)
(55.291615 0.103678785 2.04158594e-11)
(55.1375261 0.115502681 2.36062557e-11)
(54.9735341 0.12715254 1.06555174e-11)
(54.799372 0.138628659 1.95499194e-11)
(54.6143292 0.149733268 4.45804718e-12)
(54.418147 0.160220092 1.45459888e-11)
(54.2100979 0.169864468 5.71402551e-12)
(53.990098 0.178491449 1.9913987e-12)
(53.7576917 0.185922284 4.53778691e-12)
(53.5133952 0.192045755 2.28680782e-13)
(53.2575809 0.196817242 -1.44261618e-11)
(52.991264 0.200257128 3.6241465e-11)
(52.7153527 0.202485363 2.53638866e-11)
(52.4306886 0.203623206 -8.16910124e-12)
(52.1381809 0.203864463 2.76385294e-11)
(51.8381676 0.203348855 -5.68952535e-11)
(51.5315861 0.202271447 -1.52444669e-11)
(51.2181985 0.200757367 -2.22609639e-11)
(50.8987333 0.198931156 4.66750569e-12)
(50.5724777 0.196866291 -1.21272871e-11)
(50.2401161 0.194627976 2.0751016e-12)
(49.9006649 0.192229177 -1.2815836e-12)
(49.5548571 0.189658219 -7.37650321e-12)
(49.2024031 0.18690644 1.52840167e-12)
(48.8440166 0.183935261 -1.3504289e-11)
(48.4805327 0.180752151 3.51450241e-11)
(48.1122807 0.177343771 -7.34761612e-12)
(47.7409858 0.173770262 1.04538045e-12)
(47.3670065 0.170020428 2.3587851e-12)
(46.9906977 0.166114495 5.61487401e-11)
(46.6121056 0.162173209 9.99188853e-12)
(46.2319706 0.158217182 6.21092542e-12)
(45.8501346 0.154306178 -1.49063854e-12)
(45.4666115 0.150467979 1.2022123e-11)
(45.0817131 0.146736654 -1.11577357e-11)
(44.695392 0.143133071 -2.16810585e-12)
(44.3079277 0.139659499 1.45153867e-11)
(43.9194016 0.13629526 3.42216935e-11)
(43.5302782 0.133032778 5.18598088e-11)
(43.1408371 0.129869789 8.41646488e-12)
(42.7514412 0.126774894 1.62625467e-11)
(42.362563 0.123759002 4.04467127e-11)
(41.9745289 0.120818463 1.99413021e-12)
(41.5878228 0.117944244 -5.41743509e-13)
(41.2027136 0.115141995 -1.25679913e-11)
(40.8195445 0.112415762 3.00926215e-11)
(40.4385399 0.109759975 1.40024089e-11)
(40.0599148 0.107163097 4.51129957e-12)
(39.6837577 0.104630244 -1.17553299e-11)
(39.310113 0.102168272 -1.59333195e-11)
(38.9389026 0.0997882381 6.01554648e-12)
(38.5700236 0.097496712 -5.80121104e-12)
(38.2033238 0.095272905 -1.72289015e-12)
(37.8387122 0.093123495 -3.17954755e-12)
(37.4762585 0.0910815517 1.18695084e-11)
(37.1160645 0.0891370645 8.52594335e-12)
(36.7580976 0.0872912879 4.21263981e-12)
(36.4025488 0.0855456555 -4.18723799e-13)
(36.0495116 0.0839067525 -1.51341484e-11)
(35.6989538 0.0823644137 -5.66006222e-12)
(35.351097 0.0809202955 -1.28827057e-11)
(35.0058874 0.0795795019 2.9428275e-11)
(34.6633981 0.0783406705 3.59373724e-13)
(34.3235989 0.077207323 -5.01401447e-12)
(33.9865389 0.0761733275 2.04526729e-12)
(33.6523099 0.0752578892 2.0302287e-12)
(33.3209055 0.0744587207 -9.03860281e-12)
(32.9923783 0.0737854008 5.09242696e-12)
(32.6667966 0.0732441819 9.49462642e-12)
(32.3442993 0.0728428304 2.57150169e-12)
(32.0250035 0.0725848184 2.3461462e-11)
(31.7090917 0.0724587576 -2.51413573e-11)
(31.3967757 0.0724379019 -2.09639882e-12)
(31.088139 0.0724610737 -6.13812907e-12)
(30.7830108 0.072414747 1.35677845e-11)
(30.4807947 0.0721368432 1.89901376e-12)
(30.1800701 0.0714196338 -6.27588699e-12)
(29.878486 0.0700939772 -1.5268337e-11)
(29.5736179 0.0681009439 -1.27921303e-11)
(29.2634295 0.0655084605 3.79103247e-13)
(28.9466448 0.0625014298 1.79740533e-11)
(28.6231428 0.059309355 -2.84257454e-13)
(28.2935262 0.0561369825 4.72983071e-12)
(27.9588504 0.0531354028 -7.50693052e-12)
(27.6203531 0.0503863576 -3.55663886e-12)
(27.2790895 0.0479282035 1.24886326e-12)
(26.9359118 0.0457552666 7.20109147e-12)
(26.5915773 0.0438423574 -1.00607938e-11)
(26.2466268 0.0421544294 -6.90593721e-12)
(25.9015108 0.0406498418 -4.26436236e-12)
(25.5565423 0.0392843279 4.62461e-12)
(25.2119617 0.0380218364 -2.46962024e-12)
(24.8678286 0.0367536589 -4.69880366e-12)
(24.5237693 0.0353880998 -2.14754967e-11)
(24.1792468 0.0338941742 -1.46154323e-11)
(23.8336684 0.0322158934 -5.86298314e-12)
(23.486912 0.0304299401 1.86961934e-11)
(23.1402884 0.0287717058 1.31916556e-11)
(22.7959493 0.0274144564 -5.99432597e-14)
(22.4553731 0.0263350337 -1.55516688e-12)
(22.1189751 0.0254278477 2.64145922e-11)
(21.7866569 0.0246133035 1.70848317e-11)
(21.4582298 0.0238395085 -5.2004394e-11)
(21.1335275 0.0230695993 -3.92339878e-12)
(20.8123228 0.0222891302 7.75089993e-12)
(20.4943999 0.0214877488 -7.78591145e-12)
(20.1797457 0.0206629271 -2.63588318e-12)
(19.8683344 0.0198225788 1.57617048e-11)
(19.5601013 0.0189718159 2.31211547e-13)
(19.2550414 0.0181151798 2.95890505e-11)
(18.9531739 0.0172587527 5.26944881e-12)
(18.654543 0.0164088882 3.71457692e-13)
(18.359208 0.0155716845 2.05221248e-11)
(18.0672433 0.0147526429 1.80581648e-11)
(17.7787342 0.013955965 -9.58573999e-12)
(17.4937726 0.0131855389 3.93557191e-12)
(17.2124561 0.0124459378 5.36720508e-12)
(16.9348836 0.0117396931 1.70317524e-11)
(16.6611546 0.0110685558 6.65697853e-12)
(16.3913651 0.0104335899 2.66425247e-12)
(16.1256055 0.00983532021 8.64521782e-13)
(15.8639569 0.00927351794 6.96922266e-12)
(15.6064978 0.00874756892 8.78994086e-12)
(15.3532908 0.00825593382 2.65751285e-12)
(15.1044235 0.00780172101 1.39997702e-12)
(14.8598235 0.00737135352 5.13856363e-13)
(14.6199005 0.00696339493 7.35644719e-13)
(14.3843772 0.00661520593 6.92956878e-12)
(14.1531532 0.00624338031 2.7420449e-11)
(13.926809 0.00590399957 4.32998865e-11)
(13.7052079 0.00558635757 2.33967294e-12)
(13.488087 0.00530874845 1.50227827e-13)
(13.2750987 0.00508020543 7.33338572e-12)
(13.0666551 0.00483876908 -1.08997001e-11)
(12.8636271 0.00450847541 -1.1973727e-11)
(12.6656569 0.00418401428 6.16547182e-12)
(12.4713026 0.00403794926 7.46168965e-12)
(12.2809951 0.00397716363 3.82011727e-12)
(12.0981342 0.00359427429 1.5522481e-11)
(11.924181 0.00276758348 -7.15250556e-12)
(11.7546728 0.0025036299 1.10534858e-12)
(11.5793261 0.00355378307 2.93247373e-11)
(11.4072427 0.00414532495 7.18055294e-12)
(11.2500551 0.00221091997 -9.86132468e-12)
(11.1075976 6.0670834e-05 -9.10698808e-12)
(10.9570758 0.00133842736 -4.82824142e-12)
(10.7958714 0.00570539463 7.57605629e-12)
(10.6288913 0.00443275203 -9.71424495e-13)
(10.5142183 -0.00148282318 1.2890956e-11)
(10.3696322 -0.00358696409 7.74536613e-12)
(10.2808701 0.00144690201 1.61499707e-11)
(10.0762953 0.0127792274 9.25815483e-12)
(9.88727996 0.00344775519 -5.19936491e-12)
(9.84948868 -0.0100344002 1.5880159e-12)
(9.77341689 -0.0114884585 3.95960217e-13)
(9.7546003 0.0069355785 3.57253224e-12)
(9.45560005 0.0186681205 3.15770995e-12)
(9.31011076 -0.00274274248 6.49702796e-12)
(9.31569621 -0.0141975678 7.05969622e-12)
(9.24425071 -0.0117728291 -2.3690267e-12)
(9.27375002 0.00751531776 7.76456136e-12)
(9.04649428 0.0146692483 2.71646788e-11)
(8.90257682 -0.0031437809 -2.66163823e-13)
(8.83587146 -0.010397849 5.25108653e-12)
(8.75582555 -0.00453452853 1.56741986e-12)
(8.67791973 0.0124714957 1.08610677e-12)
(8.43113128 0.0110779001 -6.00352184e-12)
(8.30493078 -0.00242556699 1.9376311e-11)
(8.18473424 -0.00661241922 -7.47162753e-12)
(8.12608216 -0.00216324501 6.14038686e-12)
(8.06879478 0.00430103545 7.80124332e-12)
(7.83944905 0.00389377881 1.29611916e-11)
(7.72320069 0.000270705225 2.99351391e-11)
(7.55446351 0.000142094162 1.04618689e-11)
(7.46173824 0.00349758412 1.83872423e-12)
(7.30566838 0.00834791161 -6.75421208e-12)
(7.09274456 0.00634140619 -4.24884359e-11)
(6.92493858 0.00285856515 2.4516978e-12)
(6.79069464 0.00215331357 5.06418233e-12)
(6.68816785 0.00212022973 -6.34208465e-12)
(6.59670405 0.00110454597 -2.21805413e-11)
(6.52299858 -0.00104742118 -1.00566847e-11)
(6.48273759 -0.00265628779 5.41669403e-13)
(6.46568732 -0.0030302801 3.27946735e-11)
(6.45400604 -0.00282207813 3.36575902e-12)
(6.44023696 -0.00263448393 1.90184688e-13)
(6.42398122 -0.00239646427 5.45399584e-12)
(6.40238974 -0.00191747463 5.02550105e-12)
(6.37462248 -0.000871566658 -1.01817527e-11)
(6.3246008 -0.000395169339 -1.43907268e-11)
(6.28559037 -0.00106481348 7.8788499e-12)
(6.25555232 -0.000333583647 1.11816897e-11)
(6.2018667 0.000544756482 1.2899973e-12)
(6.14582971 0.0007317399 1.60911161e-11)
(6.08902834 0.000816124241 6.55063554e-12)
(6.03203542 0.000858371396 3.28904332e-11)
(5.97539431 0.000872371628 1.61456866e-12)
(5.91963629 0.00085967254 1.51828372e-12)
(5.86512685 0.000821846263 -1.17272387e-11)
(5.81214047 0.000765992374 3.03524808e-12)
(5.76085698 0.000702493461 -1.14423598e-11)
(5.71132024 0.000640888568 -1.321648e-12)
(5.66341693 0.000588440754 -1.08343464e-11)
(5.61693273 0.000549806207 -5.79479802e-12)
(5.57160258 0.000528418868 5.70624041e-12)
(5.52711339 0.000522256879 7.59553196e-12)
(5.48324416 0.000534959073 3.30629858e-12)
(5.43930016 0.000526221827 -1.92211213e-11)
(5.39522695 0.00059797552 2.73650748e-12)
(5.35179565 0.000694751462 3.02800228e-11)
(5.30847202 0.000708300271 1.03567295e-12)
(5.26503084 0.000724725281 6.56379076e-13)
(5.22190701 0.000724417904 -3.54790766e-12)
(5.1793062 0.000723561296 -9.93463205e-12)
(5.13726213 0.000716188501 -9.43719931e-12)
(5.0962611 0.000691063442 3.50659755e-13)
(5.05596284 0.000640221313 2.99127917e-12)
(5.01721772 0.000612261888 1.96593994e-11)
(4.97863368 0.000574636111 2.91594042e-12)
(4.94262629 0.00054627051 -1.62535154e-12)
(4.90568824 0.00045269797 9.34629532e-12)
(4.87573761 0.000460441077 1.95831273e-12)
(4.84599784 0.00035478373 -1.59819836e-12)
(56.6624313 -0.152457364 1.89826682e-10)
(56.7939467 -0.217682554 1.13171017e-10)
(56.890195 -0.254592842 1.47484344e-10)
(56.8936103 -0.255864345 1.47588493e-10)
(56.8900347 -0.246171244 1.90380928e-10)
(56.8788818 -0.22530086 1.20263748e-10)
(56.8640842 -0.198003451 1.91258507e-10)
(56.8460149 -0.169817714 1.29043229e-10)
(56.826279 -0.142568296 1.9378871e-10)
(56.8057105 -0.116652415 1.10413091e-10)
(56.7854258 -0.0934425001 1.60972491e-10)
(56.7625956 -0.0725113462 7.23801763e-11)
(56.7392743 -0.0542039789 1.68024702e-10)
(56.7115005 -0.0389234702 4.53613768e-11)
(56.6824575 -0.026678731 1.38464244e-10)
(56.6509366 -0.0167456099 5.99318466e-11)
(56.6175713 -0.00948523356 1.20296603e-10)
(56.582784 -0.0037396839 7.06126666e-11)
(56.5447048 0.00010459662 1.08469568e-10)
(56.5046305 0.00327880248 7.2089686e-11)
(56.4602893 0.00502639988 1.06613172e-10)
(56.4130977 0.00635744147 6.53067362e-11)
(56.3627672 0.00760949407 8.86227216e-11)
(56.3090768 0.00879766719 2.85179772e-11)
(56.2530972 0.0105247436 8.2885025e-11)
(56.1928678 0.0128069314 -8.1114974e-12)
(56.1305099 0.0160464161 6.64194119e-11)
(56.0630204 0.0204523879 -1.76500011e-11)
(55.992744 0.0258309626 4.86983179e-11)
(55.9169051 0.0324860013 -2.63249815e-11)
(55.8382883 0.040199172 4.05379249e-11)
(55.7549709 0.0494036281 7.75747297e-12)
(55.6684117 0.0594978787 7.24556781e-11)
(55.5777256 0.0710236103 3.17706539e-11)
(55.4830023 0.0833297582 6.64091281e-11)
(55.384422 0.0968489839 4.48828641e-11)
(55.2813941 0.111432868 9.08633468e-11)
(55.1748104 0.126614935 7.13335859e-11)
(55.0638342 0.142350723 7.87762491e-11)
(54.9495019 0.158615401 4.93243814e-11)
(54.8310759 0.175502018 7.69986214e-11)
(54.708932 0.192832712 6.30975505e-11)
(54.5827571 0.210624326 6.51678052e-11)
(54.4525904 0.228717016 5.38663695e-11)
(54.3185689 0.246959026 5.66663721e-11)
(54.1808538 0.265550475 4.08171274e-11)
(54.0394072 0.284197697 4.93255333e-11)
(53.8939846 0.302850844 2.65785066e-11)
(53.7443768 0.321454421 4.17048934e-11)
(53.590196 0.340075122 1.55211448e-11)
(53.4310971 0.358199563 3.95820165e-11)
(53.266201 0.375717007 8.98023879e-13)
(53.0949749 0.392676833 4.07145157e-11)
(52.9166494 0.408763428 -1.32720801e-11)
(52.7306949 0.423726604 1.28917358e-11)
(52.5362509 0.437253563 1.7514811e-12)
(52.332993 0.449118088 -3.88761664e-11)
(52.1204606 0.459140025 -1.87232561e-12)
(51.898646 0.467208781 -2.86182542e-11)
(51.6675578 0.473403357 2.27271699e-11)
(51.4272975 0.477750239 -2.27007602e-11)
(51.1781397 0.480483203 3.22786522e-11)
(50.9201437 0.481702238 -5.69182726e-11)
(50.6539382 0.48172104 -1.43730369e-11)
(50.3793391 0.480694554 -4.83765898e-11)
(50.0970319 0.47881957 2.79696027e-11)
(49.8066365 0.476237746 -3.80995357e-11)
(49.5087848 0.473076673 1.66184973e-11)
(49.2028728 0.469348139 -1.55421526e-11)
(48.8895097 0.4650443 -2.18550134e-11)
(48.5685448 0.46012086 8.74827408e-13)
(48.2405623 0.454528717 -2.23466656e-11)
(47.9062261 0.44824044 1.776926e-11)
(47.565923 0.44126694 -4.62171418e-11)
(47.2210518 0.433711253 8.56323961e-12)
(46.8721897 0.425599238 2.37090075e-11)
(46.5195972 0.41695247 3.79236875e-11)
(46.1634052 0.408065356 1.12557929e-11)
(45.8044301 0.399063299 1.24107267e-11)
(45.4425755 0.390052102 -4.11150813e-12)
(45.0780216 0.381120342 3.13954405e-11)
(44.7111114 0.372381854 -3.94661556e-11)
(44.3418911 0.363893128 7.03234405e-12)
(43.970671 0.355664071 5.06770834e-11)
(43.5976359 0.347653088 2.40545212e-11)
(43.2232254 0.339838025 3.38776576e-11)
(42.847823 0.332228615 1.17091585e-11)
(42.4717632 0.324754937 4.97115277e-11)
(42.0955518 0.317438375 -3.41748763e-12)
(41.7195231 0.310263696 1.79856868e-12)
(41.3441906 0.303220299 6.96089144e-12)
(40.9698893 0.296345714 -3.89190256e-11)
(40.5969438 0.289635125 -9.60207323e-12)
(40.2256046 0.283067967 3.93123332e-11)
(39.856108 0.276622905 3.53356411e-12)
(39.4885855 0.270318329 -4.05091504e-11)
(39.1231215 0.26417219 -4.26511122e-11)
(38.7596756 0.258219252 2.51831149e-11)
(38.3981687 0.25247385 -2.05915586e-11)
(38.0384561 0.246886514 -5.08859195e-12)
(37.6805038 0.241474499 -8.66308645e-12)
(37.3244076 0.236330697 3.61524157e-11)
(36.9702669 0.231427971 2.27043901e-11)
(36.6180692 0.226770877 9.79169025e-12)
(36.268016 0.22236445 -2.32159538e-12)
(35.9201927 0.218224917 -4.73481108e-11)
(35.5746049 0.214327995 -1.60868141e-11)
(35.2314698 0.210677924 -3.29948035e-11)
(34.8907542 0.207290619 4.77711584e-13)
(34.5525286 0.204159801 -4.18937668e-12)
(34.2168056 0.201293633 -1.52494215e-11)
(33.8836358 0.19868773 7.62704223e-12)
(33.5530963 0.196370821 3.81891389e-12)
(33.2252065 0.194359972 -2.73304674e-11)
(32.9000333 0.192673172 2.9110334e-11)
(32.5776493 0.191324994 2.71083361e-11)
(32.2581987 0.190335386 1.03667922e-11)
(31.9417992 0.189712186 5.94814146e-11)
(31.6286293 0.189422586 6.56612477e-12)
(31.3188911 0.18939551 -2.97289313e-12)
(31.012647 0.189467364 -1.72557751e-11)
(30.7097009 0.189340684 4.04569621e-11)
(30.4094302 0.188593213 4.2921227e-12)
(30.1104116 0.18669529 -3.59578259e-11)
(29.8103336 0.183215246 -4.71357147e-11)
(29.5068438 0.178007801 -3.59250863e-11)
(29.1979893 0.171256347 1.60221001e-12)
(28.8825671 0.163438945 3.48429659e-11)
(28.5604682 0.155146571 -7.45228154e-13)
(28.232321 0.146910903 1.49893195e-11)
(27.8991634 0.139109094 -1.35309329e-12)
(27.562213 0.131960917 -1.17351694e-11)
(27.2225098 0.12556614 3.49003396e-12)
(26.8808924 0.119909638 2.00231618e-11)
(26.5381093 0.114927323 -3.31450378e-11)
(26.1946951 0.110527641 -1.81414715e-11)
(25.851102 0.106602907 -9.31738564e-12)
(25.5076373 0.103041237 1.28656209e-11)
(25.164513 0.0997293123 -8.59968785e-12)
(24.8217796 0.0963942891 -1.45979928e-11)
(24.4790825 0.092810253 -4.65111462e-11)
(24.135893 0.0888858527 -3.90361774e-11)
(23.7916421 0.0844851421 -1.67114184e-11)
(23.44628 0.0798221707 3.65165594e-11)
(23.1011398 0.0755113602 3.76997497e-11)
(22.7583061 0.0719853707 -1.14840931e-12)
(22.4191814 0.0691738796 -3.95623269e-12)
(22.0841568 0.0668053005 2.27928887e-11)
(21.7531417 0.0646747247 6.04629579e-11)
(21.4259546 0.062648574 -2.88799901e-11)
(21.1024372 0.0606317324 -8.56284153e-12)
(20.7823684 0.0585869086 2.453746e-11)
(20.465537 0.0564879334 -2.19019348e-11)
(20.1519352 0.0543271915 -7.44788892e-12)
(19.8415399 0.0521255504 4.59900237e-11)
(19.5342889 0.0498955061 8.96055044e-13)
(19.23018 0.0476494409 8.885408e-11)
(18.929235 0.0454033395 1.42271966e-11)
(18.6314987 0.0431738593 5.23444187e-13)
(18.3370314 0.0409770151 5.73407671e-11)
(18.0459084 0.0388272856 4.84915408e-11)
(17.7582159 0.0367368785 -4.49546141e-11)
(17.474047 0.0347162257 1.17920438e-11)
(17.1935001 0.0327756605 1.4683822e-11)
(16.9166732 0.030921932 4.97820103e-11)
(16.6436657 0.029159774 1.82114225e-11)
(16.3745748 0.0274919263 7.03441175e-12)
(16.1094919 0.0259196743 2.02210948e-12)
(15.8484969 0.0244429352 1.92171687e-11)
(15.5916648 0.0230605666 2.28729102e-11)
(15.3390547 0.0217685228 6.80630318e-12)
(15.0907521 0.0205746323 3.56327206e-12)
(14.8467116 0.0194437636 1.0655732e-12)
(14.6073464 0.0183629836 1.74108494e-12)
(14.3723576 0.0174000342 1.93252744e-11)
(14.1415515 0.0164899826 6.36110453e-11)
(13.9155953 0.0155934028 3.44075525e-11)
(13.6945227 0.0147322013 5.54279491e-12)
(13.4779963 0.0139890691 1.75241371e-14)
(13.2650875 0.0134484493 8.34447489e-12)
(13.0562257 0.012863432 -4.33229443e-11)
(12.8538294 0.011842284 -4.67310465e-11)
(12.6580152 0.0108037616 1.46885049e-11)
(12.4640772 0.0107430391 2.10885611e-11)
(12.2696679 0.0112073924 1.03858455e-11)
(12.0835918 0.00980746395 4.46808847e-11)
(11.9157421 0.00620463064 -1.18659479e-11)
(11.757024 0.00546582812 2.59804225e-12)
(11.5752601 0.011070097 1.62086948e-11)
(11.3792471 0.0143087224 1.91595581e-11)
(11.2191595 0.00369648341 -1.77915611e-11)
(11.1083229 -0.00482779373 -2.67793419e-11)
(10.9827607 0.00231511598 -1.39624501e-11)
(10.7838148 0.0238669468 3.10595295e-11)
(10.550805 0.0188014304 -3.12228857e-12)
(10.4627132 -0.0134959737 4.04809677e-11)
(10.4300403 -0.0225356464 2.19022454e-11)
(10.3707512 0.00791649527 4.56397452e-11)
(10.0579911 0.0576967686 2.62794343e-11)
(9.70768487 0.017495794 -2.32864528e-11)
(9.78504292 -0.0494198922 4.77732555e-12)
(9.8844907 -0.0505767219 6.11127229e-13)
(9.90586552 0.0342998464 1.00089254e-11)
(9.39893484 0.0862209923 8.73777339e-12)
(9.0644425 -0.00639002916 1.85098802e-11)
(9.24548599 -0.0689370989 2.03185068e-11)
(9.36521713 -0.0478969244 2.19964662e-11)
(9.43139211 0.041756804 2.03300483e-11)
(8.97435959 0.0725172038 1.46685973e-11)
(8.69159021 -0.0154637305 -1.33505254e-12)
(8.80576969 -0.0542475699 1.50661981e-11)
(8.86590808 -0.0163680372 4.20825147e-12)
(8.77563828 0.0562642348 3.08946601e-12)
(8.34482494 0.0506056613 4.36643741e-12)
(8.14703737 -0.0169371054 -1.05019748e-12)
(8.19919114 -0.036364935 -3.12155564e-11)
(8.23379998 -0.00463372455 1.93213555e-11)
(8.16424916 0.0497647858 2.96737756e-11)
(7.78351542 0.0345693349 -1.77736434e-13)
(7.64204784 -0.00468953894 5.29147972e-11)
(7.5802414 -0.00663135195 2.8940536e-11)
(7.54187887 0.0150312016 4.9506068e-12)
(7.36007234 0.0352665457 -2.97733578e-11)
(7.09242666 0.0235947192 -5.20213885e-11)
(6.92437554 0.007229983 8.62197107e-12)
(6.82842752 0.00701234081 1.62649597e-11)
(6.73569893 0.0110131123 -2.89312573e-11)
(6.62522494 0.00799144559 2.37655507e-12)
(6.53347409 -0.000563016876 -2.869411e-11)
(6.49290403 -0.0057527681 1.25916993e-12)
(6.48009878 -0.00621345528 2.53902646e-11)
(6.46546479 -0.00567867413 8.49789755e-12)
(6.4450639 -0.0057571023 3.14053297e-13)
(6.42499793 -0.00553748102 1.52264149e-11)
(6.40290221 -0.00443432004 1.46374284e-11)
(6.37522119 -0.00185795151 -2.8168267e-11)
(6.32499778 -0.000686427192 -2.92443697e-11)
(6.28558598 -0.00305333302 2.36618051e-11)